
                                 *****************
                                 * O   R   C   A *
                                 *****************

                                            #,                                       
                                            ###                                      
                                            ####                                     
                                            #####                                    
                                            ######                                   
                                           ########,                                 
                                     ,,################,,,,,                         
                               ,,#################################,,                 
                          ,,##########################################,,             
                       ,#########################################, ''#####,          
                    ,#############################################,,   '####,        
                  ,##################################################,,,,####,       
                ,###########''''           ''''###############################       
              ,#####''   ,,,,##########,,,,          '''####'''          '####       
            ,##' ,,,,###########################,,,                        '##       
           ' ,,###''''                  '''############,,,                           
         ,,##''                                '''############,,,,        ,,,,,,###''
      ,#''                                            '''#######################'''  
     '                                                          ''''####''''         
             ,#######,   #######,   ,#######,      ##                                
            ,#'     '#,  ##    ##  ,#'     '#,    #''#        ,####,   ,####,        
            ##       ##  ##   ,#'  ##            #'  '#       #'       #'  '#        
            ##       ##  #######   ##           ,######,      #####,   #    #        
            '#,     ,#'  ##    ##  '#,     ,#' ,#      #,     #,   #   #,  ,#        
             '#######'   ##     ##  '#######'  #'      '#     '####' # '####'        



                #########################################################
                #                        -***-                          #
                #          Department of theory and spectroscopy        #
                #                                                       #
                #                      Frank Neese                      #
                #                                                       #
                #     Directorship, Architecture, Infrastructure        #
                #                    SHARK, DRIVERS                     #
                #        Core code/Algorithms in most modules           #
                #                                                       #
                #        Max Planck Institute fuer Kohlenforschung      #
                #                Kaiser Wilhelm Platz 1                 #
                #                 D-45470 Muelheim/Ruhr                 #
                #                      Germany                          #
                #                                                       #
                #                  All rights reserved                  #
                #                        -***-                          #
                #########################################################


                         Program Version 6.0.1  -  RELEASE   -


 With contributions from (in alphabetic order):
[Max-Planck-Institut fuer Kohlenforschung]                               
  Daniel Aravena         : Magnetic Suceptibility                        
  Michael Atanasov       : Ab Initio Ligand Field Theory (pilot matlab implementation)
  Alexander A. Auer      : GIAO ZORA, VPT2 properties, NMR spectrum      
  Ute Becker             : All parallelization in ORCA, NUMFREQ, NUMCALC 
  Giovanni Bistoni       : ED, misc. LED, open-shell LED, HFLD           
  Martin Brehm           : Molecular dynamics                            
  Dmytro Bykov           : pre 5.0 version of the SCF Hessian            
  Marcos Casanova-Páez   : Triplet and SCS-CIS(D). UHF-(DLPNO)-IP/EA/STEOM-CCSD. UHF-CVS-IP/STEOM-CCSD   
  Vijay G. Chilkuri      : MRCI spin determinant printing, contributions to CSF-ICE 
  Pauline Colinet        : FMM embedding                                 
  Dipayan Datta          : RHF DLPNO-CCSD density                        
  Achintya Kumar Dutta   : EOM-CC, STEOM-CC                              
  Nicolas Foglia         : Exact transition moments, OPA infrastructure, MCD improvements    
  Dmitry Ganyushin       : Spin-Orbit,Spin-Spin,Magnetic field MRCI      
  Miquel Garcia-Rates    : C-PCM and meta-GGA Hessian, CCSD/C-PCM, Gaussian charge scheme 
  Tiago L. C. Gouveia    : GS-ROHF, GS-ROCIS                             
  Yang Guo               : DLPNO-NEVPT2, F12-NEVPT2, CIM, IAO-localization        
  Andreas Hansen         : Spin unrestricted coupled pair/coupled cluster methods 
  Ingolf Harden          : AUTO-CI MPn and infrastructure                
  Benjamin Helmich-Paris : MC-RPA, TRAH-(SCF,CASSCF), AVAS, COSX integrals, SCF dyn. polar. 
  Lee Huntington         : MR-EOM, pCC                                   
  Robert Izsak           : Overlap fitted RIJCOSX, COSX-SCS-MP3, EOM     
  Riya Kayal             : Wick's Theorem for AUTO-CI, AUTO-CI UHF-CCSDT 
  Emily Kempfer          : AUTO-CI, RHF CISDT and CCSDT                  
  Christian Kollmar      : KDIIS, OOCD, Brueckner-CCSD(T), CCSD density, CASPT2, CASPT2-K, improved NEVPT2 
  Axel Koslowski         : Symmetry handling                             
  Simone Kossmann        : meta-GGA functionals, TD-DFT gradient, OOMP2, (MP2 Hessian; deprecated post 5.0) 
  Lucas Lang             : DCDCAS                                        
  Marvin Lechner         : AUTO-CI (C++ implementation), FIC-MRCC        
  Spencer Leger          : CASSCF response                               
  Dagmar Lenk            : GEPOL surface, SMD, ORCA-2-JSON               
  Dimitrios Liakos       : Extrapolation schemes; Compound Job, initial MDCI parallelization 
  Dimitrios Manganas     : Further ROCIS development; embedding schemes. LFT, Crystal Embedding 
  Dimitrios Pantazis     : SARC Basis sets                               
  Anastasios Papadopoulos: AUTO-CI, single reference methods and gradients 
  Taras Petrenko         : pre 6.0 DFT Hessian and TD-DFT gradient, (ASA, deprecated), ECA, 1-Electron XAS/XES, NRVS 
  Peter Pinski           : DLPNO-MP2, DLPNO-MP2 Gradient                 
  Christoph Reimann      : Effective Core Potentials                     
  Marius Retegan         : Local ZFS, SOC                                
  Christoph Riplinger    : Optimizer, TS searches, QM/MM, DLPNO-CCSD(T), (RO)-DLPNO pert. Triples 
  Michael Roemelt        : Original ROCIS implementation                 
  Masaaki Saitow         : Open-shell DLPNO-CCSD energy and density      
  Barbara Sandhoefer     : DKH picture change effects                    
  Kantharuban Sivalingam : CASSCF convergence/infrastructure, NEVPT2 and variants, FIC-MRCI 
  Bernardo de Souza      : ESD, SOC TD-DFT                               
  Georgi L. Stoychev     : AutoAux, RI-MP2 NMR, DLPNO-MP2 response, X2C  
  Van Anh Tran           : RI-MP2 g-tensors                              
  Willem Van den Heuvel  : Paramagnetic NMR                              
  Zikuan Wang            : NOTCH, Electric field optimization            
  Frank Wennmohs         : Technical directorship and infrastructure     
  Hang Xu                : AUTO-CI-Response properties                   
                                                                         
[FACCTs GmbH]                                                            
  Markus Bursch, Miquel Garcia-Rates, Christoph Riplinger, Bernardo de Souza, Georgi L. Stoychev 
                                                                 
  APM, Basis sets (HGBS, AHGBS, def-TZVP (Ac-Lr), def2-XVPD (La-Lu)), CI-OPT, improved COSX, DLPNO-Multilevel,           
  DOCKER, DRACO, updates on ESD, GOAT, IRC, LR-CPCM, MBIS, meta-GGA TD-DFT gradient, ML-optimized integration grids, 
  MM, NACMEs, nearIR, NEB, NEB-TS, NL-DFT gradient (VV10), 2- and 3-layer-ONIOM, interface openCOSMO-RS, QMMM,   
  Crystal-QMMM, SF, symmetry and pop. for TD-DFT, r2SCAN hybrids, SOLVATOR                                   
                                                                         
[Other institutions]                                                     
  V. Asgeirsson          : NEB                                           
  Christoph Bannwarth    : sTDA-DFT, sTD-DFT, PBEh-3c, B97-3c, D3        
  Sebastian Ehlert       : rSCAN, r2SCAN, r2SCAN-3c, D4, dhf basis sets  
  Marvin Friede          : D4 for Fr, Ra, Ac-Lr                          
  Lars Goerigk           : TD-DFT with DH, B97 family of functionals     
  Stefan Grimme          : VdW corrections, initial TS optimization, DFT functionals, gCP, sTDA/sTD-DF 
  Waldemar Hujo          : DFT-NL                                        
  H. Jonsson             : NEB                                           
  Holger Kruse           : gCP                                           
  Marcel Mueller         : wB97X-3c, vDZP basis set                      
  Hagen Neugebauer       : wr2SCAN                                       
  Tobias Risthaus        : range-separated hybrid DFT                    
  Lukas Wittmann         : regularized MP2, r2SCAN double-hybrids, wr2SCAN        
                                                                         
We gratefully acknowledge several colleagues who have allowed us to      
interface, adapt or use parts of their codes:                            
  Ed Valeev, F. Pavosevic, A. Kumar             : LibInt (2-el integral package), F12 methods 
  Garnet Chan, S. Sharma, J. Yang, R. Olivares  : DMRG                   
  Ulf Ekstrom                                   : XCFun DFT Library      
  Mihaly Kallay                                 : mrcc  (arbitrary order and MRCC methods)
  Frank Weinhold                                : gennbo (NPA and NBO analysis)           
  Simon Mueller                                 : openCOSMO-RS                            
  Christopher J. Cramer and Donald G. Truhlar   : smd solvation model                     
  S Lehtola, MJT Oliveira, MAL Marques          : LibXC Library                           
  Liviu Ungur et al                             : ANISO software                          


 Your calculation uses the libint2 library for the computation of 2-el integrals
 For citations please refer to: http://libint.valeyev.net

 Your ORCA version has been built with support for libXC version: 6.2.2
 For citations please refer to: https://libxc.gitlab.io

 This ORCA versions uses:
   CBLAS   interface :  Fast vector & matrix operations
   LAPACKE interface :  Fast linear algebra routines
   SCALAPACK package :  Parallel linear algebra routines
   Shared memory     :  Shared parallel matrices
   BLAS/LAPACK       :  OpenBLAS 0.3.27  USE64BITINT DYNAMIC_ARCH NO_AFFINITY Cooperlake SINGLE_THREADED
        Core in use  :  Cooperlake
   Copyright (c) 2011-2014, The OpenBLAS Project


Warning: RI is on but no J-basis has been assigned. Assigning Def2/J (nothing to worry about!)
================================================================================

----- Orbital basis set information -----
Your calculation utilizes the basis: def2-SVP
   F. Weigend and R. Ahlrichs, Phys. Chem. Chem. Phys. 7, 3297 (2005).

----- AuxJ basis set information -----
Your calculation utilizes the auxiliary basis: def2/J
   F. Weigend, Phys. Chem. Chem. Phys. 8, 1057 (2006).

================================================================================
                                        WARNINGS
                       Please study these warnings very carefully!
================================================================================


================================================================================
                                       INPUT FILE
================================================================================
NAME = ts_thermo.inp
|  1> ! Freq B3LYP def2-SVP
|  2> 
|  3> %freq
|  4> end
|  5> 
|  6> %FREQ TEMP 298.15, 295, 300, 400, 600, 800, 1000
|  7> END
|  8> 
|  9> * xyz -1 1
| 10>   C     -0.027956    0.053756    0.015029
| 11>   H      0.972687    0.401028    0.234994
| 12>   Br    -1.093451    2.116816    0.590424
| 13>   H     -0.557564   -0.534177    0.752687
| 14>   H     -0.373603    0.052253   -1.010033
| 15>   Cl     1.079888   -2.089676   -0.583100
| 16> *
| 17> 
| 18>                          ****END OF INPUT****
================================================================================

                       ****************************
                       * Single Point Calculation *
                       ****************************

---------------------------------
CARTESIAN COORDINATES (ANGSTROEM)
---------------------------------
  C     -0.027956    0.053756    0.015029
  H      0.972687    0.401028    0.234994
  Br    -1.093451    2.116816    0.590424
  H     -0.557564   -0.534177    0.752687
  H     -0.373603    0.052253   -1.010033
  Cl     1.079888   -2.089676   -0.583100

----------------------------
CARTESIAN COORDINATES (A.U.)
----------------------------
  NO LB      ZA    FRAG     MASS         X           Y           Z
   0 C     6.0000    0    12.011   -0.052829    0.101584    0.028401
   1 H     1.0000    0     1.008    1.838112    0.757833    0.444074
   2 Br   35.0000    0    79.900   -2.066323    4.000203    1.115740
   3 H     1.0000    0     1.008   -1.053643   -1.009448    1.422372
   4 H     1.0000    0     1.008   -0.706007    0.098744   -1.908686
   5 Cl   17.0000    0    35.453    2.040693   -3.948915   -1.101899

--------------------------------
INTERNAL COORDINATES (ANGSTROEM)
--------------------------------
 C      0   0   0     0.000000000000     0.00000000     0.00000000
 H      1   0   0     1.081789654535     0.00000000     0.00000000
 Br     1   2   0     2.392190536862    94.94721031     0.00000000
 H      1   2   3     1.081799043777   119.25219296   261.48025726
 H      1   2   3     1.081769943871   119.25343212    98.53117362
 Cl     1   2   3     2.485835346036    85.03721280   179.99114020

---------------------------
INTERNAL COORDINATES (A.U.)
---------------------------
 C      0   0   0     0.000000000000     0.00000000     0.00000000
 H      1   0   0     2.044286181580     0.00000000     0.00000000
 Br     1   2   0     4.520584974826    94.94721031     0.00000000
 H      1   2   3     2.044303924677   119.25219296   261.48025726
 H      1   2   3     2.044248933823   119.25343212    98.53117362
 Cl     1   2   3     4.697548018029    85.03721280   179.99114020

---------------------
BASIS SET INFORMATION
---------------------
There are 4 groups of distinct atoms

 Group   1 Type C   : 7s4p1d contracted to 3s2p1d pattern {511/31/1}
 Group   2 Type H   : 4s1p contracted to 2s1p pattern {31/1}
 Group   3 Type Br  : 14s10p6d contracted to 5s4p3d pattern {63311/5311/411}
 Group   4 Type Cl  : 10s7p1d contracted to 4s3p1d pattern {5311/511/1}

Atom   0C    basis set group =>   1
Atom   1H    basis set group =>   2
Atom   2Br   basis set group =>   3
Atom   3H    basis set group =>   2
Atom   4H    basis set group =>   2
Atom   5Cl   basis set group =>   4
---------------------------------
AUXILIARY/J BASIS SET INFORMATION
---------------------------------
There are 4 groups of distinct atoms

 Group   1 Type C   : 12s5p4d2f1g contracted to 6s4p3d1f1g pattern {711111/2111/211/2/1}
 Group   2 Type H   : 5s2p1d contracted to 3s1p1d pattern {311/2/1}
 Group   3 Type Br  : 19s5p5d3f1g contracted to 8s4p3d2f1g pattern {121111111/2111/311/21/1}
 Group   4 Type Cl  : 14s5p5d2f1g contracted to 8s4p3d1f1g pattern {71111111/2111/311/2/1}

Atom   0C    basis set group =>   1
Atom   1H    basis set group =>   2
Atom   2Br   basis set group =>   3
Atom   3H    basis set group =>   2
Atom   4H    basis set group =>   2
Atom   5Cl   basis set group =>   4
------------------------------------------------------------------------------
                             ORCA STARTUP CALCULATIONS
                           -- RI-GTO INTEGRALS CHOSEN --
------------------------------------------------------------------------------
------------------------------------------------------------------------------
                   ___                                                        
                  /   \      - P O W E R E D   B Y -                         
                 /     \                                                     
                 |  |  |   _    _      __       _____    __    __             
                 |  |  |  | |  | |    /  \     |  _  \  |  |  /  |          
                  \  \/   | |  | |   /    \    | | | |  |  | /  /          
                 / \  \   | |__| |  /  /\  \   | |_| |  |  |/  /          
                |  |  |   |  __  | /  /__\  \  |    /   |      \           
                |  |  |   | |  | | |   __   |  |    \   |  |\   \          
                \     /   | |  | | |  |  |  |  | |\  \  |  | \   \       
                 \___/    |_|  |_| |__|  |__|  |_| \__\ |__|  \__/        
                                                                              
                      - O R C A' S   B I G   F R I E N D -                    
                                      &                                       
                       - I N T E G R A L  F E E D E R -                       
                                                                              
 v1 FN, 2020, v2 2021, v3 2022-2024                                           
------------------------------------------------------------------------------


----------------------
SHARK INTEGRAL PACKAGE
----------------------

Number of atoms                             ...      6
Number of basis functions                   ...     79
Number of shells                            ...     35
Maximum angular momentum                    ...      2
Integral batch strategy                     ... SHARK/LIBINT Hybrid
RI-J (if used) integral strategy            ... SPLIT-RIJ (Revised 2003 algorithm where possible)
Printlevel                                  ...      1
Contraction scheme used                     ... SEGMENTED contraction
Prescreening option                         ... SCHWARTZ
   Thresh                                   ... 1.000e-10
   Tcut                                     ... 1.000e-11
   Tpresel                                  ... 1.000e-11 
Coulomb Range Separation                    ... NOT USED
Exchange Range Separation                   ... NOT USED
Multipole approximations                    ... NOT USED
Finite Nucleus Model                        ... NOT USED
CABS basis                                  ... NOT available
Auxiliary Coulomb fitting basis             ... AVAILABLE
   # of basis functions in Aux-J            ...    191
   # of shells in Aux-J                     ...     65
   Maximum angular momentum in Aux-J        ...      4
Auxiliary J/K fitting basis                 ... NOT available
Auxiliary Correlation fitting basis         ... NOT available
Auxiliary 'external' fitting basis          ... NOT available

Checking pre-screening integrals            ... done (  0.0 sec) Dimension = 35
Check shell pair data                       ... done (  0.0 sec)
Shell pair information
Shell pair cut-off parameter TPreSel        ...   1.0e-11
Total number of shell pairs                 ...       630
Shell pairs after pre-screening             ...       572
Total number of primitive shell pairs       ...      2935
Primitive shell pairs kept                  ...      2017
          la=0 lb=0:    156 shell pairs
          la=1 lb=0:    199 shell pairs
          la=1 lb=1:     73 shell pairs
          la=2 lb=0:     78 shell pairs
          la=2 lb=1:     53 shell pairs
          la=2 lb=2:     13 shell pairs

Calculating one electron integrals          ... done (  0.0 sec)
Calculating RI/J V-Matrix + Cholesky decomp.... done (  0.0 sec)
Calculating Nuclear repulsion               ... done (  0.0 sec) ENN=    173.163589531469 Eh

Diagonalization of the overlap matrix:
Smallest eigenvalue                        ... 1.433e-02
Time for diagonalization                   ...    0.004 sec
Threshold for overlap eigenvalues          ... 1.000e-07
Number of eigenvalues below threshold      ... 0
Time for construction of square roots      ...    0.002 sec
Total time needed                          ...    0.006 sec

-------------------
DFT GRID GENERATION
-------------------

General Integration Accuracy     IntAcc      ... 4.388
Radial Grid Type                 RadialGrid  ... OptM3 with GC (2021)
Angular Grid (max. ang.)         AngularGrid ... 4 (Lebedev-302)
Angular grid pruning method      GridPruning ... 4 (adaptive)
Weight generation scheme         WeightScheme... mBecke (2022)
Basis function cutoff            BFCut       ... 1.0000e-10
Integration weight cutoff        WCut        ... 1.0000e-14
Partially contracted basis set               ... off
Rotationally invariant grid construction     ... off
Angular grids for H and He will be reduced by one unit
Core-polarized basis detected: some atoms will have their core
                               angular grid increased.

Total number of grid points                  ...    34624
Total number of batches                      ...      544
Average number of points per batch           ...       63
Average number of grid points per atom       ...     5771

--------------------
COSX GRID GENERATION
--------------------

GRIDX 1
-------
General Integration Accuracy     IntAcc      ... 3.816
Radial Grid Type                 RadialGrid  ... OptM3 with GC (2021)
Angular Grid (max. ang.)         AngularGrid ... 1 (Lebedev-50)
Angular grid pruning method      GridPruning ... 4 (adaptive)
Weight generation scheme         WeightScheme... mBecke (2022)
Basis function cutoff            BFCut       ... 1.0000e-10
Integration weight cutoff        WCut        ... 1.0000e-14
Partially contracted basis set               ... on
Rotationally invariant grid construction     ... off
Angular grids for H and He will be reduced by one unit
Core-polarized basis detected: some atoms will have their core
                               angular grid increased.

Total number of grid points                  ...    10252
Total number of batches                      ...       83
Average number of points per batch           ...      123
Average number of grid points per atom       ...     1709
UseSFitting                                  ... on

GRIDX 2
-------
General Integration Accuracy     IntAcc      ... 4.020
Radial Grid Type                 RadialGrid  ... OptM3 with GC (2021)
Angular Grid (max. ang.)         AngularGrid ... 2 (Lebedev-110)
Angular grid pruning method      GridPruning ... 4 (adaptive)
Weight generation scheme         WeightScheme... mBecke (2022)
Basis function cutoff            BFCut       ... 1.0000e-10
Integration weight cutoff        WCut        ... 1.0000e-14
Partially contracted basis set               ... on
Rotationally invariant grid construction     ... off
Angular grids for H and He will be reduced by one unit
Core-polarized basis detected: some atoms will have their core
                               angular grid increased.

Total number of grid points                  ...    12437
Total number of batches                      ...      101
Average number of points per batch           ...      123
Average number of grid points per atom       ...     2073
UseSFitting                                  ... on

GRIDX 3
-------
General Integration Accuracy     IntAcc      ... 4.338
Radial Grid Type                 RadialGrid  ... OptM3 with GC (2021)
Angular Grid (max. ang.)         AngularGrid ... 3 (Lebedev-194)
Angular grid pruning method      GridPruning ... 4 (adaptive)
Weight generation scheme         WeightScheme... mBecke (2022)
Basis function cutoff            BFCut       ... 1.0000e-10
Integration weight cutoff        WCut        ... 1.0000e-14
Partially contracted basis set               ... on
Rotationally invariant grid construction     ... off
Angular grids for H and He will be reduced by one unit
Core-polarized basis detected: some atoms will have their core
                               angular grid increased.

Total number of grid points                  ...    20572
Total number of batches                      ...      164
Average number of points per batch           ...      125
Average number of grid points per atom       ...     3429
UseSFitting                                  ... on
Initializing property integral containers    ... done (  0.0 sec)

SHARK setup successfully completed in   0.6 seconds

Maximum memory used throughout the entire STARTUP-calculation: 16.7 MB
-------------------------------------------------------------------------------
                                 ORCA GUESS
                   Start orbitals & Density for SCF / CASSCF
-------------------------------------------------------------------------------

------------
SCF SETTINGS
------------
Hamiltonian:
 Density Functional     Method          .... DFT(GTOs)
 Exchange Functional    Exchange        .... B88
   X-Alpha parameter    XAlpha          ....  0.666667
   Becke's b parameter  XBeta           ....  0.004200
 Correlation Functional Correlation     .... LYP
 LDA part of GGA corr.  LDAOpt          .... VWN-5
 Gradients option       PostSCFGGA      .... off
 Hybrid DFT is turned on
   Fraction HF Exchange ScalHFX         ....  0.200000
   Scaling of DF-GGA-X  ScalDFX         ....  0.720000
   Scaling of DF-GGA-C  ScalDFC         ....  0.810000
   Scaling of DF-LDA-C  ScalLDAC        ....  1.000000
   Perturbative correction              ....  0.000000
   NL short-range parameter             ....  4.800000
 RI-approximation to the Coulomb term is turned on
   Number of AuxJ basis functions       .... 191
   RIJ-COSX (HFX calculated with COS-X)).... on


General Settings:
 Integral files         IntName         .... ts_thermo
 Hartree-Fock type      HFTyp           .... RHF
 Total Charge           Charge          ....   -1
 Multiplicity           Mult            ....    1
 Number of Electrons    NEL             ....   62
 Basis Dimension        Dim             ....   79
 Nuclear Repulsion      ENuc            ....    173.1635895315 Eh

Convergence Acceleration:
 AO-DIIS                CNVDIIS         .... on
   Start iteration      DIISMaxIt       ....    12
   Startup error        DIISStart       ....  0.200000
   # of expansion vecs  DIISMaxEq       ....     5
   Bias factor          DIISBfac        ....   1.050
   Max. coefficient     DIISMaxC        ....  10.000
 MO-DIIS                CNVKDIIS        .... off
 Trust-Rad. Augm. Hess. CNVTRAH         .... auto
   Auto Start mean grad. ratio tolernc. ....  1.125000
   Auto Start start iteration           ....    50
   Auto Start num. interpolation iter.  ....    10
   Max. Number of Micro iterations      ....    24
   Max. Number of Macro iterations      .... Maxiter - #DIIS iter
   Number of Davidson start vectors     ....     2
   Converg. threshold    (grad. norm)   ....   5.000e-05
   Grad. Scal. Fac. for Micro threshold ....   0.100
   Minimum threshold for Micro iter.    ....   1.000e-02
   NR start threshold (gradient norm)   ....   1.000e-04
   Initial trust radius                 ....   0.400
   Minimum AH scaling param. (alpha)    ....   1.000
   Maximum AH scaling param. (alpha)    .... 1000.000
   Quad. conv. algorithm                .... NR
   White noise on init. David. guess    .... on
   Maximum white noise                  ....   0.010
   Pseudo random numbers                .... off
   Inactive MOs                         .... canonical
   Orbital update algorithm             .... Taylor
   Preconditioner                       .... Diag
   Full preconditioner red. dimension   ....   250
 SOSCF                  CNVSOSCF        .... on
   Start iteration      SOSCFMaxIt      ....   150
   Startup grad/error   SOSCFStart      ....  0.003300
   Hessian update       SOSCFHessUp     .... L-BFGS
 Level Shifting         CNVShift        .... on
   Level shift para.    LevelShift      ....    0.2500
   Turn off err/grad.   ShiftErr        ....    0.0010
 Zerner damping         CNVZerner       .... off
 Static damping         CNVDamp         .... on
   Fraction old density DampFac         ....    0.7000
   Max. Damping (<1)    DampMax         ....    0.9800
   Min. Damping (>=0)   DampMin         ....    0.0000
   Turn off err/grad.   DampErr         ....    0.1000

SCF Procedure:
 Maximum # iterations   MaxIter         ....   125
 SCF integral mode      SCFMode         .... Direct
   Integral package                     .... SHARK and LIBINT hybrid scheme
 Reset frequency        DirectResetFreq ....    20
 Integral Threshold     Thresh          ....  1.000e-10 Eh
 Primitive CutOff       TCut            ....  1.000e-11 Eh

Convergence Tolerance:
 Convergence Check Mode ConvCheckMode   .... Total+1el-Energy
 Convergence forced     ConvForced      .... 0
 Energy Change          TolE            ....  1.000e-06 Eh
 1-El. energy change                    ....  1.000e-03 Eh
 Orbital Gradient       TolG            ....  5.000e-05
 Orbital Rotation angle TolX            ....  5.000e-05
 DIIS Error             TolErr          ....  1.000e-06

------------------------------
INITIAL GUESS: MODEL POTENTIAL
------------------------------
Loading Hartree-Fock densities                     ... done
Calculating cut-offs                               ... done
Initializing the effective Hamiltonian             ... done
Setting up the integral package (SHARK)            ... done
Starting the Coulomb interaction                   ... done (   0.0 sec)
Making the grid                                    ... done (   0.1 sec)
Mapping shells                                     ... done
Starting the XC term evaluation                    ... done (   0.0 sec)
  promolecular density results
     # of electrons  =     60.997795264
     EX              =   -123.156882422
     EC              =     -2.672074332
     EX+EC           =   -125.828956754
Transforming the Hamiltonian                       ... done (   0.0 sec)
Diagonalizing the Hamiltonian                      ... done (   0.0 sec)
Back transforming the eigenvectors                 ... done (   0.0 sec)
Now organizing SCF variables                       ... done
                      ------------------
                      INITIAL GUESS DONE (   0.1 sec)
                      ------------------
             **** ENERGY FILE WAS UPDATED (ts_thermo.en.tmp) ****
Finished Guess after   0.2 sec
Maximum memory used throughout the entire GUESS-calculation: 9.7 MB

-------------------------------------------------------------------------------------------
                                      ORCA LEAN-SCF
                              memory conserving SCF solver
-------------------------------------------------------------------------------------------

----------------------------------------D-I-I-S--------------------------------------------
Iteration    Energy (Eh)           Delta-E    RMSDP     MaxDP     DIISErr   Damp  Time(sec)
-------------------------------------------------------------------------------------------
               ***  Starting incremental Fock matrix formation  ***
    1    -3073.5599618996834579     0.00e+00  4.41e-03  1.00e-01  1.29e-01  0.700   0.9
    2    -3073.5913632202214103    -3.14e-02  3.37e-03  6.71e-02  7.46e-02  0.700   0.7
                               ***Turning on AO-DIIS***
    3    -3073.6065645777275677    -1.52e-02  1.75e-03  3.80e-02  3.48e-02  0.700   0.6
    4    -3073.6151662616393878    -8.60e-03  3.29e-03  8.35e-02  2.00e-02  0.000   0.6
    5    -3073.6329179887825376    -1.78e-02  5.23e-04  9.73e-03  4.14e-03  0.000   0.6
                              *** Initializing SOSCF ***
---------------------------------------S-O-S-C-F--------------------------------------
Iteration    Energy (Eh)           Delta-E    RMSDP     MaxDP     MaxGrad    Time(sec)
--------------------------------------------------------------------------------------
    6    -3073.6330531279113529    -1.35e-04  1.52e-04  2.43e-03  1.63e-03     0.6
               *** Restarting incremental Fock matrix formation ***
    7    -3073.6330697293628873    -1.66e-05  1.24e-04  2.10e-03  4.91e-04     0.8
    8    -3073.6330703222834018    -5.93e-07  5.37e-05  8.82e-04  4.40e-04     0.7
                 **** Energy Check signals convergence ****

               *****************************************************
               *                     SUCCESS                       *
               *           SCF CONVERGED AFTER   8 CYCLES          *
               *****************************************************

Recomputing exchange energy using gridx3       ... done (    1.103 sec)
Old exchange energy                            :    -24.712748017 Eh
New exchange energy                            :    -24.712738799 Eh
Exchange energy change after final integration :      0.000009219 Eh
Total energy after final integration           :  -3073.633061104 Eh
             **** ENERGY FILE WAS UPDATED (ts_thermo.en.tmp) ****

----------------
TOTAL SCF ENERGY
----------------

Total Energy       :      -3073.63306110374288 Eh          -83637.80766 eV

Components:
Nuclear Repulsion  :        173.16358953146886 Eh            4712.02083 eV
Electronic Energy  :      -3246.79665985375232 Eh          -88349.82873 eV
One Electron Energy:      -4630.15495449255013 Eh         -125992.92167 eV
Two Electron Energy:       1383.35829463879782 Eh           37643.09293 eV

Virial components:
Potential Energy   :      -6142.98147190297368 Eh         -167159.02405 eV
Kinetic Energy     :       3069.34841079923081 Eh           83521.21639 eV
Virial Ratio       :          2.00139594784660

DFT components:
N(Alpha)           :       31.000000350987 electrons
N(Beta)            :       31.000000350987 electrons
N(Total)           :       62.000000701973 electrons
E(X)               :      -98.277983919080 Eh       
E(C)               :       -3.163566707620 Eh       
E(XC)              :     -101.441550626700 Eh       

---------------
SCF CONVERGENCE
---------------

  Last Energy change         ...    5.9292e-07  Tolerance :   1.0000e-06
  Last MAX-Density change    ...    8.8171e-04  Tolerance :   1.0000e-05
  Last RMS-Density change    ...    5.3729e-05  Tolerance :   1.0000e-06
  Last DIIS Error            ...    1.6330e-03  Tolerance :   1.0000e-06
  Last Orbital Gradient      ...    4.3993e-04  Tolerance :   5.0000e-05
  Last Orbital Rotation      ...    9.0309e-04  Tolerance :   5.0000e-05


----------------
ORBITAL ENERGIES
----------------

  NO   OCC          E(Eh)            E(eV) 
   0   2.0000    -482.555021    -13130.9897 
   1   2.0000    -101.205601     -2753.9444 
   2   2.0000     -62.238292     -1693.5900 
   3   2.0000     -56.069623     -1525.7320 
   4   2.0000     -56.068136     -1525.6915 
   5   2.0000     -56.068135     -1525.6915 
   6   2.0000     -10.078582      -274.2522 
   7   2.0000      -9.157414      -249.1859 
   8   2.0000      -8.455199      -230.0777 
   9   2.0000      -6.923107      -188.3873 
  10   2.0000      -6.918914      -188.2732 
  11   2.0000      -6.918913      -188.2732 
  12   2.0000      -6.284893      -171.0206 
  13   2.0000      -6.277682      -170.8244 
  14   2.0000      -6.277679      -170.8243 
  15   2.0000      -2.399585       -65.2960 
  16   2.0000      -2.397692       -65.2445 
  17   2.0000      -2.397689       -65.2444 
  18   2.0000      -2.391980       -65.0891 
  19   2.0000      -2.391976       -65.0890 
  20   2.0000      -0.558955       -15.2099 
  21   2.0000      -0.517830       -14.0909 
  22   2.0000      -0.479669       -13.0525 
  23   2.0000      -0.274271        -7.4633 
  24   2.0000      -0.274238        -7.4624 
  25   2.0000      -0.142102        -3.8668 
  26   2.0000      -0.079023        -2.1503 
  27   2.0000      -0.079022        -2.1503 
  28   2.0000      -0.048447        -1.3183 
  29   2.0000      -0.048441        -1.3181 
  30   2.0000      -0.047230        -1.2852 
  31   0.0000       0.138873         3.7789 
  32   0.0000       0.225515         6.1366 
  33   0.0000       0.290980         7.9180 
  34   0.0000       0.290988         7.9182 
  35   0.0000       0.527878        14.3643 
  36   0.0000       0.572853        15.5881 
  37   0.0000       0.572882        15.5889 
  38   0.0000       0.660337        17.9687 
  39   0.0000       0.709174        19.2976 
  40   0.0000       0.747858        20.3502 
  41   0.0000       0.747869        20.3506 
*Only the first 10 virtual orbitals were printed.

                    ********************************
                    * MULLIKEN POPULATION ANALYSIS *
                    ********************************

-----------------------
MULLIKEN ATOMIC CHARGES
-----------------------
   0 C :    0.037035
   1 H :    0.063723
   2 Br:   -0.576614
   3 H :    0.063727
   4 H :    0.063705
   5 Cl:   -0.651576
Sum of atomic charges:   -1.0000000

--------------------------------
MULLIKEN REDUCED ORBITAL CHARGES
--------------------------------
  0 C s       :     3.173770  s :     3.173770
      pz      :     1.002815  p :     2.766504
      px      :     0.961631
      py      :     0.802057
      dz2     :     0.006303  d :     0.022691
      dxz     :     0.004660
      dyz     :     0.003349
      dx2y2   :     0.003694
      dxy     :     0.004686

  1 H s       :     0.911778  s :     0.911778
      pz      :     0.004987  p :     0.024499
      px      :     0.013830
      py      :     0.005682

  2 Brs       :     7.983347  s :     7.983347
      pz      :     5.972018  p :    17.581711
      px      :     5.915199
      py      :     5.694494
      dz2     :     2.001717  d :    10.011556
      dxz     :     2.000540
      dyz     :     2.002228
      dx2y2   :     2.003041
      dxy     :     2.004031

  3 H s       :     0.911777  s :     0.911777
      pz      :     0.009146  p :     0.024496
      px      :     0.006870
      py      :     0.008480

  4 H s       :     0.911796  s :     0.911796
      pz      :     0.013981  p :     0.024499
      px      :     0.005564
      py      :     0.004955

  5 Cls       :     5.987135  s :     5.987135
      pz      :     3.970174  p :    11.661847
      px      :     3.927826
      py      :     3.763846
      dz2     :     0.000359  d :     0.002595
      dxz     :     0.000180
      dyz     :     0.000465
      dx2y2   :     0.000627
      dxy     :     0.000963



                     *******************************
                     * LOEWDIN POPULATION ANALYSIS *
                     *******************************

----------------------
LOEWDIN ATOMIC CHARGES
----------------------
   0 C :   -0.004513
   1 H :    0.016756
   2 Br:   -0.466307
   3 H :    0.016769
   4 H :    0.016761
   5 Cl:   -0.579467

-------------------------------
LOEWDIN REDUCED ORBITAL CHARGES
-------------------------------
  0 C s       :     2.974218  s :     2.974218
      pz      :     1.075946  p :     2.979775
      px      :     1.033709
      py      :     0.870120
      dz2     :     0.014556  d :     0.050520
      dxz     :     0.010750
      dyz     :     0.007418
      dx2y2   :     0.008051
      dxy     :     0.009746

  1 H s       :     0.909954  s :     0.909954
      pz      :     0.012831  p :     0.073290
      px      :     0.044496
      py      :     0.015964

  2 Brs       :     7.938979  s :     7.938979
      pz      :     5.960924  p :    17.514396
      px      :     5.898310
      py      :     5.655162
      dz2     :     2.002002  d :    10.012933
      dxz     :     2.000550
      dyz     :     2.002308
      dx2y2   :     2.003296
      dxy     :     2.004777

  3 H s       :     0.909946  s :     0.909946
      pz      :     0.027931  p :     0.073284
      px      :     0.019849
      py      :     0.025504

  4 H s       :     0.909942  s :     0.909942
      pz      :     0.045089  p :     0.073297
      px      :     0.015075
      py      :     0.013133

  5 Cls       :     5.955369  s :     5.955369
      pz      :     3.965258  p :    11.622004
      px      :     3.918638
      py      :     3.738108
      dz2     :     0.000290  d :     0.002094
      dxz     :     0.000150
      dyz     :     0.000369
      dx2y2   :     0.000500
      dxy     :     0.000785



                      *****************************
                      * MAYER POPULATION ANALYSIS *
                      *****************************

  NA   - Mulliken gross atomic population
  ZA   - Total nuclear charge
  QA   - Mulliken gross atomic charge
  VA   - Mayer's total valence
  BVA  - Mayer's bonded valence
  FA   - Mayer's free valence

  ATOM       NA         ZA         QA         VA         BVA        FA
  0 C      5.9630     6.0000     0.0370     3.8590     3.8590     0.0000
  1 H      0.9363     1.0000     0.0637     1.0182     1.0182    -0.0000
  2 Br    35.5766    35.0000    -0.5766     0.6832     0.6832     0.0000
  3 H      0.9363     1.0000     0.0637     1.0182     1.0182    -0.0000
  4 H      0.9363     1.0000     0.0637     1.0183     1.0183     0.0000
  5 Cl    17.6516    17.0000    -0.6516     0.5950     0.5950     0.0000

  Mayer bond orders larger than 0.100000
B(  0-C ,  1-H ) :   0.9847 B(  0-C ,  2-Br) :   0.5300 B(  0-C ,  3-H ) :   0.9847 
B(  0-C ,  4-H ) :   0.9847 B(  0-C ,  5-Cl) :   0.3748 B(  2-Br,  5-Cl) :   0.1281 


-------
TIMINGS
-------

Total SCF time: 0 days 0 hours 0 min 6 sec 

Total time                  ....       6.780 sec
Sum of individual times     ....       6.749 sec  ( 99.5%)

SCF preparation             ....       0.070 sec  (  1.0%)
Fock matrix formation       ....       6.642 sec  ( 98.0%)
  Startup                   ....       0.002 sec  (  0.0% of F)
  Split-RI-J                ....       0.254 sec  (  3.8% of F)
  Chain of spheres X        ....       5.436 sec  ( 81.8% of F)
  XC integration            ....       0.937 sec  ( 14.1% of F)
    XC Preparation          ....       0.000 sec  (  0.0% of XC)
    Basis function eval.    ....       0.393 sec  ( 41.9% of XC)
    Density eval.           ....       0.141 sec  ( 15.1% of XC)
    XC-Functional eval.     ....       0.113 sec  ( 12.0% of XC)
    XC-Potential eval.      ....       0.169 sec  ( 18.0% of XC)
Diagonalization             ....       0.000 sec  (  0.0%)
Density matrix formation    ....       0.006 sec  (  0.1%)
Total Energy calculation    ....       0.002 sec  (  0.0%)
Population analysis         ....       0.006 sec  (  0.1%)
Orbital Transformation      ....       0.003 sec  (  0.0%)
Orbital Orthonormalization  ....       0.000 sec  (  0.0%)
DIIS solution               ....       0.016 sec  (  0.2%)
SOSCF solution              ....       0.004 sec  (  0.1%)
Finished LeanSCF after   6.8 sec

Maximum memory used throughout the entire LEANSCF-calculation: 8.8 MB

------------------------------------------------------------------------------
                         ORCA PROPERTY INTEGRAL CALCULATIONS
------------------------------------------------------------------------------

GBWName                                   ... ts_thermo.gbw
Number of atoms                           ...      6
Number of basis functions                 ...     79
Max core memory                           ...   1024 MB

Dipole integrals                          ... YES
Quadrupole integrals                      ...  NO
Linear momentum integrals                 ...  NO
Angular momentum integrals                ...  NO
Higher moments length integrals           ...  NO
Higher moments velocity integrals         ...  NO
Kinetic energy integrals                  ...  NO
GIAO right hand sides                     ...  NO
GIAO dipole derivative integrals          ...  NO
SOC integrals                             ...  NO
EPR diamagnetic integrals (GIAO)          ...  NO
EPR gauge integrals                       ...  NO
Field gradient integrals                  ...  NO (   0 nuclei)
Spin-dipole/Fermi contact integrals       ...  NO (   0 nuclei)
Contact density integrals                 ...  NO (   0 nuclei)
Nucleus-orbit integrals                   ...  NO (   0 nuclei)
Geometric perturbations                   ... YES (   6 nuclei)

Choice of electric origin   ... Center of mass
Position of electric origin ... ( -0.7156,  1.3857,  0.3864) 
Choice of magnetic origin   ... GIAO
Position of magnetic origin ... (  0.0000,  0.0000,  0.0000) 

Calculating integrals                     ... Electric Dipole (Length)     done (  0.0 sec)
Calculating integrals                     ... Geometrical perturbation right hand sides

-----------------------
GEOMETRIC PERTURBATIONS (6 nuclei)
-----------------------

MaxCore                            ...   1024 MB
Number of batches                  ...      1

BATCH   0: Atoms    0 -    5 ( 18 perturbations)
   => H(core) and overlap derivative integrals     ... done (     0.0 sec)
   => Making and storing internal U-coefficients   ... done (     0.0 sec)
   => RI-J derivative integrals                    ... done (     0.4 sec)
   => RI-J response operators                      ... done (     0.1 sec)
   => Chain of spheres derivative integrals        ... done (     2.7 sec)
   => Chain of spheres response operator           ... done (     1.4 sec)
   => XC derivative integrals                      ... done (     3.8 sec)
   => XC response operators                        ... done (     0.7 sec)
   => Completing and storing right hand sides      ... done (     0.0 sec)
   => Total time for right hand sides =   9.2 sec

  geometrical perturbations done (  9.3 sec)

Property integrals calculated in   9.3 sec

Maximum memory used throughout the entire PROPINT-calculation: 15.5 MB

-------------------------   --------------------
FINAL SINGLE POINT ENERGY     -3073.633061103743
-------------------------   --------------------

------------------------------------------------------------------------------
                            ORCA SCF RESPONSE CALCULATION
------------------------------------------------------------------------------

GBWName                                 ... ts_thermo.gbw
Number of atoms                         ...      6
Number of basis functions               ...     79
Max core memory                         ...   1024 MB

Electric field perturbation             ...  NO
Quadrupolar field perturbation          ...  NO
Magnetic field perturbation (no GIAO)   ...  NO
Magnetic field perturbation (with GIAO) ...  NO
Linear momentum (velocity) perturbation ...  NO
Spin-orbit coupling perturbation        ...  NO
Choice of electric origin               ... Center of mass
Position of electric origin             ...    -0.715602     1.385720     0.386389
Choice of magnetic origin               ... GIAO
Position of magnetic origin             ...     0.000000     0.000000     0.000000
Nuclear geometric perturbations         ... YES (  18 perturbations)
Nucleus-orbit perturbations             ...  NO (   0 perturbations)
Spin-dipole/Fermi contact perturbations ...  NO (   0 perturbations)

Total number of real perturbations      ...     18
Total number of imaginary perturbations ...      0
Total number of triplet perturbations   ...      0
Total number of SOC perturbations       ...      0


                                **********************
                                * REAL PERTURBATIONS *
                                **********************



-------------------
SHARK CP-SCF DRIVER
-------------------

Dimension of the orbital basis          ...     79
Dimension of the CPSCF-problem          ...   1488
Number of operators                     ...      1
Max. number of iterations               ...    128
Convergence Tolerance                   ... 1.0e-03
Number of perturbations                 ...     18
Perturbation type                       ... REAL

----------------------------
POPLE LINEAR EQUATION SOLVER
----------------------------

  ITERATION   0:   ||err||_max =   1.9728e-01 (   1.2 sec   0/ 18 done)
  ITERATION   1:   ||err||_max =   2.0620e-02 (   1.2 sec   0/ 18 done)
  ITERATION   2:   ||err||_max =   3.6048e-03 (   1.2 sec   0/ 18 done)
  ITERATION   3:   ||err||_max =   1.2345e-03 (   1.2 sec   9/ 18 done)
  ITERATION   4:   ||err||_max =   4.3594e-04 (   1.6 sec  18/ 18 done)

CP-SCF equations solved in   6.5 sec
Response densities calculated in   0.0 sec

Maximum memory used throughout the entire SCFRESP-calculation: 15.6 MB

------------------------------------------------------------------------------
                              ORCA PROPERTY CALCULATIONS
------------------------------------------------------------------------------

GBWName                                 ... ts_thermo.gbw
Number of atoms                         ...      6
Number of basis functions               ...     79
Max core memory                         ...   1024 MB

Electric properties:
Dipole moment                           ... YES
Quadrupole moment                       ...  NO
Static polarizability (Dipole/Dipole)   ...  NO
Static polarizability (Dipole/Quad.)    ...  NO
Static polarizability (Quad./Quad.)     ...  NO
Static polarizability (Velocity)        ...  NO

Atomic electric properties:
Dipole moment                           ...  NO
Quadrupole moment                       ...  NO
Static polarizability                   ...  NO

Choice of electric origin               ... Center of mass
Position of electric origin             ...    -0.715602     1.385720     0.386389

General magnetic properties:
Magnetizability                         ...  NO

EPR properties:
g-Tensor (aka g-matrix)                 ...  NO
Zero-Field splitting spin-orbit         ...  NO
Zero-field splitting spin-spin          ...  NO
Hyperfine couplings                     ...  NO (   0 nuclei)
Quadrupole couplings                    ...  NO (   0 nuclei)
Contact density                         ...  NO (   0 nuclei)

NMR properties:
Chemical shifts                         ...  NO (   0 nuclei)
Spin-rotation constants                 ...  NO (   0 nuclei)
Spin-spin couplings                     ...  NO (   0 nuclei,    0 pairs)

Choice of magnetic origin               ... GIAO
Position of magnetic origin             ...     0.000000     0.000000     0.000000

Properties with geometric perturbations:
SCF Hessian                             ... YES
IR spectrum                             ... YES
VCD spectrum                            ...  NO
X-ray spectroscopy properties:
SCF XES/XAS/RIXS spectra                ...  NO


-------------
DIPOLE MOMENT
-------------

Method             : SCF
Type of density    : Electron Density
Multiplicity       :   1
Irrep              :   0
Energy             : -3073.6330611037428753 Eh
Relativity type    : 
Basis              : AO
                                X                 Y                 Z
Electronic contribution:     -6.645073451      12.863635146       3.588057700
Nuclear contribution   :      5.783706162     -11.196786765      -3.122972278
                        -----------------------------------------
Total Dipole Moment    :     -0.861367289       1.666848381       0.465085422
                        -----------------------------------------
Magnitude (a.u.)       :      1.933039467
Magnitude (Debye)      :      4.913395852



--------------------
Rotational spectrum 
--------------------
 
Rotational constants in cm-1:             4.799525             0.028229             0.028229 
Rotational constants in MHz :        143886.127292           846.295585           846.294950 

Dipole components along the rotational axes: 
x,y,z [a.u.] :     1.933039     0.000094     0.000144 
x,y,z [Debye]:     4.913396     0.000238     0.000367 

 

Dipole moment calculation done in   0.0 sec 

-----------
SCF HESSIAN
-----------

Occupied/Occupied contributions to the Hessian:
   => Occupied/Occupied contributions              ... done (  0.0 sec)
Perturbed density contributions to the Hessian:
   => Perturbed density contributions              ... done (  0.0 sec)
Explicit contributions to the Hessian:
   => Nuclear repulsion Hessian                    ... done (  0.0 sec)
   => HCore and overlap Hessian                    ... done (  0.3 sec)
   => RI-J Hessian                                 ... done (  0.8 sec)
   => COSX Hessian                                 ... done ( 37.5 sec)
   => XC-Hessian                                   ... done (  3.6 sec)
   => Explicit contributions done
Dipole derivatives                                 ... done (  0.0 sec)
Mass weighting the Hessian           ... done
Calculating normal modes             ... done
Scaling frequencies                  ... done

-----------------------
VIBRATIONAL FREQUENCIES
-----------------------

Scaling factor for frequencies =  1.000000000  (already applied!)

     0:       0.00 cm**-1
     1:       0.00 cm**-1
     2:       0.00 cm**-1
     3:       0.00 cm**-1
     4:       0.00 cm**-1
     5:       0.00 cm**-1
     6:    -295.92 cm**-1  ***imaginary mode***
     7:     168.28 cm**-1
     8:     168.39 cm**-1
     9:     172.18 cm**-1
    10:     821.55 cm**-1
    11:     821.60 cm**-1
    12:     919.36 cm**-1
    13:    1362.51 cm**-1
    14:    1362.60 cm**-1
    15:    3184.46 cm**-1
    16:    3398.43 cm**-1
    17:    3398.69 cm**-1


------------
NORMAL MODES
------------

These modes are the Cartesian displacements weighted by the diagonal matrix
M(i,i)=1/sqrt(m[i]) where m[i] is the mass of the displaced atom
Thus, these vectors are normalized but *not* orthogonal

                  0          1          2          3          4          5    
      0       0.000000   0.000000   0.000000   0.000000   0.000000   0.000000
      1       0.000000   0.000000   0.000000   0.000000   0.000000   0.000000
      2       0.000000   0.000000   0.000000   0.000000   0.000000   0.000000
      3       0.000000   0.000000   0.000000   0.000000   0.000000   0.000000
      4       0.000000   0.000000   0.000000   0.000000   0.000000   0.000000
      5       0.000000   0.000000   0.000000   0.000000   0.000000   0.000000
      6       0.000000   0.000000   0.000000   0.000000   0.000000   0.000000
      7       0.000000   0.000000   0.000000   0.000000   0.000000   0.000000
      8       0.000000   0.000000   0.000000   0.000000   0.000000   0.000000
      9       0.000000   0.000000   0.000000   0.000000   0.000000   0.000000
     10       0.000000   0.000000   0.000000   0.000000   0.000000   0.000000
     11       0.000000   0.000000   0.000000   0.000000   0.000000   0.000000
     12       0.000000   0.000000   0.000000   0.000000   0.000000   0.000000
     13       0.000000   0.000000   0.000000   0.000000   0.000000   0.000000
     14       0.000000   0.000000   0.000000   0.000000   0.000000   0.000000
     15       0.000000   0.000000   0.000000   0.000000   0.000000   0.000000
     16       0.000000   0.000000   0.000000   0.000000   0.000000   0.000000
     17       0.000000   0.000000   0.000000   0.000000   0.000000   0.000000
                  6          7          8          9         10         11    
      0      -0.435212  -0.388642   0.193700   0.063899   0.016052   0.018675
      1       0.842901  -0.127564   0.209729  -0.130851   0.013236   0.004141
      2       0.235561  -0.260325  -0.391944  -0.042864  -0.017981   0.019671
      3      -0.071917  -0.371633   0.188721   0.075358   0.179138   0.272730
      4      -0.002959  -0.189246   0.236274  -0.137170  -0.417306  -0.582845
      5      -0.008163  -0.283868  -0.395128  -0.043888  -0.072495  -0.197815
      6       0.036662   0.037188  -0.018277  -0.181604  -0.002689  -0.003140
      7      -0.071046   0.011664  -0.020202   0.352181  -0.002250  -0.000704
      8      -0.019855   0.024621   0.037187   0.098855   0.003019  -0.003318
      9       0.023642  -0.402845   0.231979   0.064336  -0.386019  -0.010785
     10       0.056078  -0.120450   0.156487  -0.143234   0.680506  -0.060626
     11      -0.040134  -0.262526  -0.420540  -0.040114   0.221042  -0.052824
     12       0.012594  -0.423283   0.176592   0.065079   0.122931  -0.359342
     13       0.019006  -0.084287   0.253189  -0.138192  -0.329597   0.622980
     14       0.069923  -0.256349  -0.392621  -0.052314  -0.054780   0.148884
     15       0.065835   0.081911  -0.041414   0.381809   0.003009   0.003518
     16      -0.127498   0.028133  -0.043889  -0.737473   0.002474   0.000767
     17      -0.035673   0.055531   0.083331  -0.204391  -0.003379   0.003706
                 12         13         14         15         16         17    
      0       0.007980  -0.080400  -0.012229  -0.004705  -0.087721   0.026500
      1      -0.015448  -0.042246   0.018277   0.008926  -0.050023  -0.013602
      2      -0.004295   0.002356  -0.088148   0.002464   0.016793   0.097945
      3      -0.218563  -0.022825  -0.088181   0.531505   0.688959  -0.295249
      4       0.514469  -0.029830  -0.269701   0.192813   0.241126  -0.106423
      5       0.148529  -0.232230   0.724794   0.119551   0.156363  -0.056299
      6       0.004668  -0.000009   0.000000   0.000059   0.000125  -0.000038
      7      -0.009022  -0.000005   0.000004  -0.000113   0.000071   0.000020
      8      -0.002519   0.000002  -0.000009  -0.000032  -0.000024  -0.000139
      9      -0.278691   0.354987   0.466386  -0.286558   0.315190   0.245252
     10       0.474926   0.122603   0.090039  -0.306961   0.349982   0.264530
     11       0.168467   0.435992   0.323096   0.395980  -0.448128  -0.327245
     12      -0.272080   0.620561  -0.233451  -0.188131   0.023110  -0.260309
     13       0.499410   0.407899  -0.037158   0.006262  -0.005280   0.001117
     14       0.098189  -0.231926  -0.003369  -0.545300   0.095141  -0.763463
     15       0.008651   0.000171   0.000027  -0.000154   0.000231  -0.000070
     16      -0.016763   0.000088  -0.000036   0.000299   0.000131   0.000037
     17      -0.004673  -0.000001   0.000187   0.000083  -0.000045  -0.000258


-----------
IR SPECTRUM
-----------

 Mode   freq       eps      Int      T**2         TX        TY        TZ
       cm**-1   L/(mol*cm) km/mol    a.u.
----------------------------------------------------------------------------
  7:    168.28   0.001494    7.55  0.002771  (-0.042345 -0.013703 -0.028102)
  8:    168.39   0.001530    7.73  0.002836  ( 0.021127  0.023263 -0.042994)
  9:    172.18   0.000585    2.96  0.001061  (-0.014648  0.028075  0.007599)
 10:    821.55   0.000189    0.96  0.000072  (-0.004970 -0.004177  0.005455)
 11:    821.60   0.000191    0.97  0.000073  (-0.005668 -0.001659 -0.006143)
 12:    919.36   0.012853   64.96  0.004363  ( 0.029530 -0.056923 -0.015829)
 13:   1362.51   0.000741    3.74  0.000170  ( 0.011322  0.006418 -0.000574)
 14:   1362.60   0.000742    3.75  0.000170  ( 0.001719 -0.002908  0.012595)
 15:   3184.46   0.000000    0.00  0.000000  (-0.000072 -0.000121  0.000095)
 16:   3398.43   0.000469    2.37  0.000043  ( 0.005714  0.003014 -0.001171)
 17:   3398.69   0.000471    2.38  0.000043  (-0.001672  0.000979 -0.006286)

* The epsilon (eps) is given for a Dirac delta lineshape.
** The dipole moment derivative (T) already includes vibrational overlap.

The first frequency considered to be a vibration is 7
The total number of vibrations considered is 11


--------------------------
THERMOCHEMISTRY AT 298.15K
--------------------------

Temperature         ...   298.15 K
Pressure            ...     1.00 atm
Total Mass          ...   130.39 AMU
Quasi RRHO          ...     True
Cut-Off Frequency   ...     1.00 cm^-1

Throughout the following assumptions are being made:
  (1) The electronic state is orbitally nondegenerate
  (2) There are no thermally accessible electronically excited states
  (3) Hindered rotations indicated by low frequency modes are not
      treated as such but are treated as vibrations and this may
      cause some error
  (4) All equations used are the standard statistical mechanics
      equations for an ideal gas
  (5) All vibrations are strictly harmonic

freq.     168.28  E(vib)   ...       0.38 
freq.     168.39  E(vib)   ...       0.38 
freq.     172.18  E(vib)   ...       0.38 
freq.     821.55  E(vib)   ...       0.05 
freq.     821.60  E(vib)   ...       0.05 
freq.     919.36  E(vib)   ...       0.03 
freq.    1362.51  E(vib)   ...       0.01 
freq.    1362.60  E(vib)   ...       0.01 
freq.    3184.46  E(vib)   ...       0.00 
freq.    3398.43  E(vib)   ...       0.00 
freq.    3398.69  E(vib)   ...       0.00 

------------
INNER ENERGY
------------

The inner energy is: U= E(el) + E(ZPE) + E(vib) + E(rot) + E(trans)
    E(el)   - is the total energy from the electronic structure calculation
              = E(kin-el) + E(nuc-el) + E(el-el) + E(nuc-nuc)
    E(ZPE)  - the the zero temperature vibrational energy from the frequency calculation
    E(vib)  - the the finite temperature correction to E(ZPE) due to population
              of excited vibrational states
    E(rot)  - is the rotational thermal energy
    E(trans)- is the translational thermal energy

Summary of contributions to the inner energy U:
Electronic energy                ...  -3073.63306110 Eh
Zero point energy                ...      0.03594507 Eh      22.56 kcal/mol
Thermal vibrational correction   ...      0.00204215 Eh       1.28 kcal/mol
Thermal rotational correction    ...      0.00141627 Eh       0.89 kcal/mol
Thermal translational correction ...      0.00141627 Eh       0.89 kcal/mol
-----------------------------------------------------------------------
Total thermal energy                  -3073.59224134 Eh


Summary of corrections to the electronic energy:
(perhaps to be used in another calculation)
Total thermal correction                  0.00487470 Eh       3.06 kcal/mol
Non-thermal (ZPE) correction              0.03594507 Eh      22.56 kcal/mol
-----------------------------------------------------------------------
Total correction                          0.04081976 Eh      25.61 kcal/mol


--------
ENTHALPY
--------

The enthalpy is H = U + kB*T
                kB is Boltzmann's constant
Total thermal energy              ...  -3073.59224134 Eh 
Thermal Enthalpy correction       ...      0.00094421 Eh       0.59 kcal/mol
-----------------------------------------------------------------------
Total Enthalpy                    ...  -3073.59129713 Eh


Note: Only C1 symmetry has been detected, increase convergence thresholds 
      if your molecule has a higher symmetry. Symmetry factor of 1.0 is   
      used for the rotational entropy correction. 
 

Note: Rotational entropy computed according to Herzberg 
Infrared and Raman Spectra, Chapter V,1, Van Nostrand Reinhold, 1945 
Point Group:  C1, Symmetry Number:   1  
Rotational constants in cm-1:     4.799525     0.028229     0.028229 

Vibrational entropy computed according to the QRRHO of S. Grimme
Chem.Eur.J. 2012 18 9955 using a reference frequency of 100.0 cm-1


-------
ENTROPY
-------

The entropy contributions are T*S = T*(S(el)+S(vib)+S(rot)+S(trans))
     S(el)   - electronic entropy
     S(vib)  - vibrational entropy
     S(rot)  - rotational entropy
     S(trans)- translational entropy
The entropies will be listed as multiplied by the temperature to get
units of energy

Electronic entropy                ...      0.00000000 Eh      0.00 kcal/mol
Vibrational entropy               ...      0.00372343 Eh      2.34 kcal/mol
Rotational entropy                ...      0.01213859 Eh      7.62 kcal/mol
Translational entropy             ...      0.01924704 Eh     12.08 kcal/mol
-----------------------------------------------------------------------
Final entropy term                ...      0.03510906 Eh     22.03 kcal/mol

In case the symmetry of your molecule has not been determined correctly
or in case you have a reason to use a different symmetry number we print 
out the resulting rotational entropy values for sn=1,12:

 non-linear molecules -----------------------------------
|  sn= 1 | S(rot)=       0.01213859 Eh      7.62 kcal/mol|
|  sn= 2 | S(rot)=       0.01148414 Eh      7.21 kcal/mol|
|  sn= 3 | S(rot)=       0.01110130 Eh      6.97 kcal/mol|
|  sn= 4 | S(rot)=       0.01082968 Eh      6.80 kcal/mol|
|  sn= 5 | S(rot)=       0.01061899 Eh      6.66 kcal/mol|
|  sn= 6 | S(rot)=       0.01044685 Eh      6.56 kcal/mol|
|  sn= 7 | S(rot)=       0.01030130 Eh      6.46 kcal/mol|
|  sn= 8 | S(rot)=       0.01017522 Eh      6.39 kcal/mol|
|  sn= 9 | S(rot)=       0.01006401 Eh      6.32 kcal/mol|
|  sn=10 | S(rot)=       0.00996454 Eh      6.25 kcal/mol|
|  sn=11 | S(rot)=       0.00987455 Eh      6.20 kcal/mol|
|  sn=12 | S(rot)=       0.00979239 Eh      6.14 kcal/mol|
 linear molecules ---------------------------------------
|  Dinfh | S(rot)=       0.00869407 Eh      5.46 kcal/mol|
|  Cinfv | S(rot)=       0.00934853 Eh      5.87 kcal/mol|
 --------------------------------------------------------


-------------------
GIBBS FREE ENERGY
-------------------

The Gibbs free energy is G = H - T*S

Total enthalpy                    ...  -3073.59129713 Eh 
Total entropy correction          ...     -0.03510906 Eh    -22.03 kcal/mol
-----------------------------------------------------------------------
Final Gibbs free energy         ...  -3073.62640619 Eh

For completeness - the Gibbs free energy minus the electronic energy
G-E(el)                           ...      0.00665491 Eh      4.18 kcal/mol


The first frequency considered to be a vibration is 7
The total number of vibrations considered is 11


--------------------------
THERMOCHEMISTRY AT 295.00K
--------------------------

Temperature         ...   295.00 K
Pressure            ...     1.00 atm
Total Mass          ...   130.39 AMU
Quasi RRHO          ...     True
Cut-Off Frequency   ...     1.00 cm^-1

Throughout the following assumptions are being made:
  (1) The electronic state is orbitally nondegenerate
  (2) There are no thermally accessible electronically excited states
  (3) Hindered rotations indicated by low frequency modes are not
      treated as such but are treated as vibrations and this may
      cause some error
  (4) All equations used are the standard statistical mechanics
      equations for an ideal gas
  (5) All vibrations are strictly harmonic

freq.     168.28  E(vib)   ...       0.38 
freq.     168.39  E(vib)   ...       0.38 
freq.     172.18  E(vib)   ...       0.37 
freq.     821.55  E(vib)   ...       0.04 
freq.     821.60  E(vib)   ...       0.04 
freq.     919.36  E(vib)   ...       0.03 
freq.    1362.51  E(vib)   ...       0.01 
freq.    1362.60  E(vib)   ...       0.01 
freq.    3184.46  E(vib)   ...       0.00 
freq.    3398.43  E(vib)   ...       0.00 
freq.    3398.69  E(vib)   ...       0.00 

------------
INNER ENERGY
------------

The inner energy is: U= E(el) + E(ZPE) + E(vib) + E(rot) + E(trans)
    E(el)   - is the total energy from the electronic structure calculation
              = E(kin-el) + E(nuc-el) + E(el-el) + E(nuc-nuc)
    E(ZPE)  - the the zero temperature vibrational energy from the frequency calculation
    E(vib)  - the the finite temperature correction to E(ZPE) due to population
              of excited vibrational states
    E(rot)  - is the rotational thermal energy
    E(trans)- is the translational thermal energy

Summary of contributions to the inner energy U:
Electronic energy                ...  -3073.63306110 Eh
Zero point energy                ...      0.03594507 Eh      22.56 kcal/mol
Thermal vibrational correction   ...      0.00200422 Eh       1.26 kcal/mol
Thermal rotational correction    ...      0.00140131 Eh       0.88 kcal/mol
Thermal translational correction ...      0.00140131 Eh       0.88 kcal/mol
-----------------------------------------------------------------------
Total thermal energy                  -3073.59230920 Eh


Summary of corrections to the electronic energy:
(perhaps to be used in another calculation)
Total thermal correction                  0.00480683 Eh       3.02 kcal/mol
Non-thermal (ZPE) correction              0.03594507 Eh      22.56 kcal/mol
-----------------------------------------------------------------------
Total correction                          0.04075190 Eh      25.57 kcal/mol


--------
ENTHALPY
--------

The enthalpy is H = U + kB*T
                kB is Boltzmann's constant
Total thermal energy              ...  -3073.59230920 Eh 
Thermal Enthalpy correction       ...      0.00093423 Eh       0.59 kcal/mol
-----------------------------------------------------------------------
Total Enthalpy                    ...  -3073.59137497 Eh


Note: Only C1 symmetry has been detected, increase convergence thresholds 
      if your molecule has a higher symmetry. Symmetry factor of 1.0 is   
      used for the rotational entropy correction. 
 

Note: Rotational entropy computed according to Herzberg 
Infrared and Raman Spectra, Chapter V,1, Van Nostrand Reinhold, 1945 
Point Group:  C1, Symmetry Number:   1  
Rotational constants in cm-1:     4.799525     0.028229     0.028229 

Vibrational entropy computed according to the QRRHO of S. Grimme
Chem.Eur.J. 2012 18 9955 using a reference frequency of 100.0 cm-1


-------
ENTROPY
-------

The entropy contributions are T*S = T*(S(el)+S(vib)+S(rot)+S(trans))
     S(el)   - electronic entropy
     S(vib)  - vibrational entropy
     S(rot)  - rotational entropy
     S(trans)- translational entropy
The entropies will be listed as multiplied by the temperature to get
units of energy

Electronic entropy                ...      0.00000000 Eh      0.00 kcal/mol
Vibrational entropy               ...      0.00364779 Eh      2.29 kcal/mol
Rotational entropy                ...      0.01199546 Eh      7.53 kcal/mol
Translational entropy             ...      0.01901889 Eh     11.93 kcal/mol
-----------------------------------------------------------------------
Final entropy term                ...      0.03466214 Eh     21.75 kcal/mol

In case the symmetry of your molecule has not been determined correctly
or in case you have a reason to use a different symmetry number we print 
out the resulting rotational entropy values for sn=1,12:

 non-linear molecules -----------------------------------
|  sn= 1 | S(rot)=       0.01199546 Eh      7.53 kcal/mol|
|  sn= 2 | S(rot)=       0.01134792 Eh      7.12 kcal/mol|
|  sn= 3 | S(rot)=       0.01096913 Eh      6.88 kcal/mol|
|  sn= 4 | S(rot)=       0.01070038 Eh      6.71 kcal/mol|
|  sn= 5 | S(rot)=       0.01049192 Eh      6.58 kcal/mol|
|  sn= 6 | S(rot)=       0.01032159 Eh      6.48 kcal/mol|
|  sn= 7 | S(rot)=       0.01017758 Eh      6.39 kcal/mol|
|  sn= 8 | S(rot)=       0.01005284 Eh      6.31 kcal/mol|
|  sn= 9 | S(rot)=       0.00994280 Eh      6.24 kcal/mol|
|  sn=10 | S(rot)=       0.00984437 Eh      6.18 kcal/mol|
|  sn=11 | S(rot)=       0.00975534 Eh      6.12 kcal/mol|
|  sn=12 | S(rot)=       0.00967405 Eh      6.07 kcal/mol|
 linear molecules ---------------------------------------
|  Dinfh | S(rot)=       0.00859229 Eh      5.39 kcal/mol|
|  Cinfv | S(rot)=       0.00923984 Eh      5.80 kcal/mol|
 --------------------------------------------------------


-------------------
GIBBS FREE ENERGY
-------------------

The Gibbs free energy is G = H - T*S

Total enthalpy                    ...  -3073.59137497 Eh 
Total entropy correction          ...     -0.03466214 Eh    -21.75 kcal/mol
-----------------------------------------------------------------------
Final Gibbs free energy         ...  -3073.62603710 Eh

For completeness - the Gibbs free energy minus the electronic energy
G-E(el)                           ...      0.00702400 Eh      4.41 kcal/mol


The first frequency considered to be a vibration is 7
The total number of vibrations considered is 11


--------------------------
THERMOCHEMISTRY AT 300.00K
--------------------------

Temperature         ...   300.00 K
Pressure            ...     1.00 atm
Total Mass          ...   130.39 AMU
Quasi RRHO          ...     True
Cut-Off Frequency   ...     1.00 cm^-1

Throughout the following assumptions are being made:
  (1) The electronic state is orbitally nondegenerate
  (2) There are no thermally accessible electronically excited states
  (3) Hindered rotations indicated by low frequency modes are not
      treated as such but are treated as vibrations and this may
      cause some error
  (4) All equations used are the standard statistical mechanics
      equations for an ideal gas
  (5) All vibrations are strictly harmonic

freq.     168.28  E(vib)   ...       0.39 
freq.     168.39  E(vib)   ...       0.39 
freq.     172.18  E(vib)   ...       0.38 
freq.     821.55  E(vib)   ...       0.05 
freq.     821.60  E(vib)   ...       0.05 
freq.     919.36  E(vib)   ...       0.03 
freq.    1362.51  E(vib)   ...       0.01 
freq.    1362.60  E(vib)   ...       0.01 
freq.    3184.46  E(vib)   ...       0.00 
freq.    3398.43  E(vib)   ...       0.00 
freq.    3398.69  E(vib)   ...       0.00 

------------
INNER ENERGY
------------

The inner energy is: U= E(el) + E(ZPE) + E(vib) + E(rot) + E(trans)
    E(el)   - is the total energy from the electronic structure calculation
              = E(kin-el) + E(nuc-el) + E(el-el) + E(nuc-nuc)
    E(ZPE)  - the the zero temperature vibrational energy from the frequency calculation
    E(vib)  - the the finite temperature correction to E(ZPE) due to population
              of excited vibrational states
    E(rot)  - is the rotational thermal energy
    E(trans)- is the translational thermal energy

Summary of contributions to the inner energy U:
Electronic energy                ...  -3073.63306110 Eh
Zero point energy                ...      0.03594507 Eh      22.56 kcal/mol
Thermal vibrational correction   ...      0.00206457 Eh       1.30 kcal/mol
Thermal rotational correction    ...      0.00142506 Eh       0.89 kcal/mol
Thermal translational correction ...      0.00142506 Eh       0.89 kcal/mol
-----------------------------------------------------------------------
Total thermal energy                  -3073.59220135 Eh


Summary of corrections to the electronic energy:
(perhaps to be used in another calculation)
Total thermal correction                  0.00491469 Eh       3.08 kcal/mol
Non-thermal (ZPE) correction              0.03594507 Eh      22.56 kcal/mol
-----------------------------------------------------------------------
Total correction                          0.04085975 Eh      25.64 kcal/mol


--------
ENTHALPY
--------

The enthalpy is H = U + kB*T
                kB is Boltzmann's constant
Total thermal energy              ...  -3073.59220135 Eh 
Thermal Enthalpy correction       ...      0.00095007 Eh       0.60 kcal/mol
-----------------------------------------------------------------------
Total Enthalpy                    ...  -3073.59125128 Eh


Note: Only C1 symmetry has been detected, increase convergence thresholds 
      if your molecule has a higher symmetry. Symmetry factor of 1.0 is   
      used for the rotational entropy correction. 
 

Note: Rotational entropy computed according to Herzberg 
Infrared and Raman Spectra, Chapter V,1, Van Nostrand Reinhold, 1945 
Point Group:  C1, Symmetry Number:   1  
Rotational constants in cm-1:     4.799525     0.028229     0.028229 

Vibrational entropy computed according to the QRRHO of S. Grimme
Chem.Eur.J. 2012 18 9955 using a reference frequency of 100.0 cm-1


-------
ENTROPY
-------

The entropy contributions are T*S = T*(S(el)+S(vib)+S(rot)+S(trans))
     S(el)   - electronic entropy
     S(vib)  - vibrational entropy
     S(rot)  - rotational entropy
     S(trans)- translational entropy
The entropies will be listed as multiplied by the temperature to get
units of energy

Electronic entropy                ...      0.00000000 Eh      0.00 kcal/mol
Vibrational entropy               ...      0.00376817 Eh      2.36 kcal/mol
Rotational entropy                ...      0.01222273 Eh      7.67 kcal/mol
Translational entropy             ...      0.01938116 Eh     12.16 kcal/mol
-----------------------------------------------------------------------
Final entropy term                ...      0.03537205 Eh     22.20 kcal/mol

In case the symmetry of your molecule has not been determined correctly
or in case you have a reason to use a different symmetry number we print 
out the resulting rotational entropy values for sn=1,12:

 non-linear molecules -----------------------------------
|  sn= 1 | S(rot)=       0.01222273 Eh      7.67 kcal/mol|
|  sn= 2 | S(rot)=       0.01156421 Eh      7.26 kcal/mol|
|  sn= 3 | S(rot)=       0.01117900 Eh      7.01 kcal/mol|
|  sn= 4 | S(rot)=       0.01090569 Eh      6.84 kcal/mol|
|  sn= 5 | S(rot)=       0.01069370 Eh      6.71 kcal/mol|
|  sn= 6 | S(rot)=       0.01052048 Eh      6.60 kcal/mol|
|  sn= 7 | S(rot)=       0.01037403 Eh      6.51 kcal/mol|
|  sn= 8 | S(rot)=       0.01024717 Eh      6.43 kcal/mol|
|  sn= 9 | S(rot)=       0.01013528 Eh      6.36 kcal/mol|
|  sn=10 | S(rot)=       0.01003518 Eh      6.30 kcal/mol|
|  sn=11 | S(rot)=       0.00994463 Eh      6.24 kcal/mol|
|  sn=12 | S(rot)=       0.00986197 Eh      6.19 kcal/mol|
 linear molecules ---------------------------------------
|  Dinfh | S(rot)=       0.00875389 Eh      5.49 kcal/mol|
|  Cinfv | S(rot)=       0.00941241 Eh      5.91 kcal/mol|
 --------------------------------------------------------


-------------------
GIBBS FREE ENERGY
-------------------

The Gibbs free energy is G = H - T*S

Total enthalpy                    ...  -3073.59125128 Eh 
Total entropy correction          ...     -0.03537205 Eh    -22.20 kcal/mol
-----------------------------------------------------------------------
Final Gibbs free energy         ...  -3073.62662334 Eh

For completeness - the Gibbs free energy minus the electronic energy
G-E(el)                           ...      0.00643777 Eh      4.04 kcal/mol


The first frequency considered to be a vibration is 7
The total number of vibrations considered is 11


--------------------------
THERMOCHEMISTRY AT 400.00K
--------------------------

Temperature         ...   400.00 K
Pressure            ...     1.00 atm
Total Mass          ...   130.39 AMU
Quasi RRHO          ...     True
Cut-Off Frequency   ...     1.00 cm^-1

Throughout the following assumptions are being made:
  (1) The electronic state is orbitally nondegenerate
  (2) There are no thermally accessible electronically excited states
  (3) Hindered rotations indicated by low frequency modes are not
      treated as such but are treated as vibrations and this may
      cause some error
  (4) All equations used are the standard statistical mechanics
      equations for an ideal gas
  (5) All vibrations are strictly harmonic

freq.     168.28  E(vib)   ...       0.58 
freq.     168.39  E(vib)   ...       0.58 
freq.     172.18  E(vib)   ...       0.57 
freq.     821.55  E(vib)   ...       0.13 
freq.     821.60  E(vib)   ...       0.13 
freq.     919.36  E(vib)   ...       0.10 
freq.    1362.51  E(vib)   ...       0.03 
[...]
     S(vib)  - vibrational entropy
     S(rot)  - rotational entropy
     S(trans)- translational entropy
The entropies will be listed as multiplied by the temperature to get
units of energy

Electronic entropy                ...      0.00000000 Eh      0.00 kcal/mol
Vibrational entropy               ...      0.01381442 Eh      8.67 kcal/mol
Rotational entropy                ...      0.02642100 Eh     16.58 kcal/mol
Translational entropy             ...      0.04205491 Eh     26.39 kcal/mol
-----------------------------------------------------------------------
Final entropy term                ...      0.08229034 Eh     51.64 kcal/mol

In case the symmetry of your molecule has not been determined correctly
or in case you have a reason to use a different symmetry number we print 
out the resulting rotational entropy values for sn=1,12:

 non-linear molecules -----------------------------------
|  sn= 1 | S(rot)=       0.02642100 Eh     16.58 kcal/mol|
|  sn= 2 | S(rot)=       0.02510397 Eh     15.75 kcal/mol|
|  sn= 3 | S(rot)=       0.02433355 Eh     15.27 kcal/mol|
|  sn= 4 | S(rot)=       0.02378694 Eh     14.93 kcal/mol|
|  sn= 5 | S(rot)=       0.02336295 Eh     14.66 kcal/mol|
|  sn= 6 | S(rot)=       0.02301652 Eh     14.44 kcal/mol|
|  sn= 7 | S(rot)=       0.02272362 Eh     14.26 kcal/mol|
|  sn= 8 | S(rot)=       0.02246990 Eh     14.10 kcal/mol|
|  sn= 9 | S(rot)=       0.02224610 Eh     13.96 kcal/mol|
|  sn=10 | S(rot)=       0.02204591 Eh     13.83 kcal/mol|
|  sn=11 | S(rot)=       0.02186481 Eh     13.72 kcal/mol|
|  sn=12 | S(rot)=       0.02169949 Eh     13.62 kcal/mol|
 linear molecules ---------------------------------------
|  Dinfh | S(rot)=       0.01882482 Eh     11.81 kcal/mol|
|  Cinfv | S(rot)=       0.02014186 Eh     12.64 kcal/mol|
 --------------------------------------------------------


-------------------
GIBBS FREE ENERGY
-------------------

The Gibbs free energy is G = H - T*S

Total enthalpy                    ...  -3073.58265570 Eh 
Total entropy correction          ...     -0.08229034 Eh    -51.64 kcal/mol
-----------------------------------------------------------------------
Final Gibbs free energy         ...  -3073.66494604 Eh

For completeness - the Gibbs free energy minus the electronic energy
G-E(el)                           ...     -0.03188493 Eh    -20.01 kcal/mol


The first frequency considered to be a vibration is 7
The total number of vibrations considered is 11


--------------------------
THERMOCHEMISTRY AT 800.00K
--------------------------

Temperature         ...   800.00 K
Pressure            ...     1.00 atm
Total Mass          ...   130.39 AMU
Quasi RRHO          ...     True
Cut-Off Frequency   ...     1.00 cm^-1

Throughout the following assumptions are being made:
  (1) The electronic state is orbitally nondegenerate
  (2) There are no thermally accessible electronically excited states
  (3) Hindered rotations indicated by low frequency modes are not
      treated as such but are treated as vibrations and this may
      cause some error
  (4) All equations used are the standard statistical mechanics
      equations for an ideal gas
  (5) All vibrations are strictly harmonic

freq.     168.28  E(vib)   ...       1.36 
freq.     168.39  E(vib)   ...       1.36 
freq.     172.18  E(vib)   ...       1.36 
freq.     821.55  E(vib)   ...       0.69 
freq.     821.60  E(vib)   ...       0.69 
freq.     919.36  E(vib)   ...       0.62 
freq.    1362.51  E(vib)   ...       0.37 
freq.    1362.60  E(vib)   ...       0.37 
freq.    3184.46  E(vib)   ...       0.03 
freq.    3398.43  E(vib)   ...       0.02 
freq.    3398.69  E(vib)   ...       0.02 

------------
INNER ENERGY
------------

The inner energy is: U= E(el) + E(ZPE) + E(vib) + E(rot) + E(trans)
    E(el)   - is the total energy from the electronic structure calculation
              = E(kin-el) + E(nuc-el) + E(el-el) + E(nuc-nuc)
    E(ZPE)  - the the zero temperature vibrational energy from the frequency calculation
    E(vib)  - the the finite temperature correction to E(ZPE) due to population
              of excited vibrational states
    E(rot)  - is the rotational thermal energy
    E(trans)- is the translational thermal energy

Summary of contributions to the inner energy U:
Electronic energy                ...  -3073.63306110 Eh
Zero point energy                ...      0.03594507 Eh      22.56 kcal/mol
Thermal vibrational correction   ...      0.01099354 Eh       6.90 kcal/mol
Thermal rotational correction    ...      0.00380016 Eh       2.38 kcal/mol
Thermal translational correction ...      0.00380016 Eh       2.38 kcal/mol
-----------------------------------------------------------------------
Total thermal energy                  -3073.57852219 Eh


Summary of corrections to the electronic energy:
(perhaps to be used in another calculation)
Total thermal correction                  0.01859385 Eh      11.67 kcal/mol
Non-thermal (ZPE) correction              0.03594507 Eh      22.56 kcal/mol
-----------------------------------------------------------------------
Total correction                          0.05453892 Eh      34.22 kcal/mol


--------
ENTHALPY
--------

The enthalpy is H = U + kB*T
                kB is Boltzmann's constant
Total thermal energy              ...  -3073.57852219 Eh 
Thermal Enthalpy correction       ...      0.00253351 Eh       1.59 kcal/mol
-----------------------------------------------------------------------
Total Enthalpy                    ...  -3073.57598867 Eh


Note: Only C1 symmetry has been detected, increase convergence thresholds 
      if your molecule has a higher symmetry. Symmetry factor of 1.0 is   
      used for the rotational entropy correction. 
 

Note: Rotational entropy computed according to Herzberg 
Infrared and Raman Spectra, Chapter V,1, Van Nostrand Reinhold, 1945 
Point Group:  C1, Symmetry Number:   1  
Rotational constants in cm-1:     4.799525     0.028229     0.028229 

Vibrational entropy computed according to the QRRHO of S. Grimme
Chem.Eur.J. 2012 18 9955 using a reference frequency of 100.0 cm-1


-------
ENTROPY
-------

The entropy contributions are T*S = T*(S(el)+S(vib)+S(rot)+S(trans))
     S(el)   - electronic entropy
     S(vib)  - vibrational entropy
     S(rot)  - rotational entropy
     S(trans)- translational entropy
The entropies will be listed as multiplied by the temperature to get
units of energy

Electronic entropy                ...      0.00000000 Eh      0.00 kcal/mol
Vibrational entropy               ...      0.02304406 Eh     14.46 kcal/mol
Rotational entropy                ...      0.03632124 Eh     22.79 kcal/mol
Translational entropy             ...      0.05789527 Eh     36.33 kcal/mol
-----------------------------------------------------------------------
Final entropy term                ...      0.11726057 Eh     73.58 kcal/mol

In case the symmetry of your molecule has not been determined correctly
or in case you have a reason to use a different symmetry number we print 
out the resulting rotational entropy values for sn=1,12:

 non-linear molecules -----------------------------------
|  sn= 1 | S(rot)=       0.03632124 Eh     22.79 kcal/mol|
|  sn= 2 | S(rot)=       0.03456520 Eh     21.69 kcal/mol|
|  sn= 3 | S(rot)=       0.03353798 Eh     21.05 kcal/mol|
|  sn= 4 | S(rot)=       0.03280915 Eh     20.59 kcal/mol|
|  sn= 5 | S(rot)=       0.03224383 Eh     20.23 kcal/mol|
|  sn= 6 | S(rot)=       0.03178193 Eh     19.94 kcal/mol|
|  sn= 7 | S(rot)=       0.03139140 Eh     19.70 kcal/mol|
|  sn= 8 | S(rot)=       0.03105311 Eh     19.49 kcal/mol|
|  sn= 9 | S(rot)=       0.03075471 Eh     19.30 kcal/mol|
|  sn=10 | S(rot)=       0.03048779 Eh     19.13 kcal/mol|
|  sn=11 | S(rot)=       0.03024632 Eh     18.98 kcal/mol|
|  sn=12 | S(rot)=       0.03002588 Eh     18.84 kcal/mol|
 linear molecules ---------------------------------------
|  Dinfh | S(rot)=       0.02582859 Eh     16.21 kcal/mol|
|  Cinfv | S(rot)=       0.02758463 Eh     17.31 kcal/mol|
 --------------------------------------------------------


-------------------
GIBBS FREE ENERGY
-------------------

The Gibbs free energy is G = H - T*S

Total enthalpy                    ...  -3073.57598867 Eh 
Total entropy correction          ...     -0.11726057 Eh    -73.58 kcal/mol
-----------------------------------------------------------------------
Final Gibbs free energy         ...  -3073.69324924 Eh

For completeness - the Gibbs free energy minus the electronic energy
G-E(el)                           ...     -0.06018814 Eh    -37.77 kcal/mol


The first frequency considered to be a vibration is 7
The total number of vibrations considered is 11


--------------------------
THERMOCHEMISTRY AT 1000.00K
--------------------------

Temperature         ...  1000.00 K
Pressure            ...     1.00 atm
Total Mass          ...   130.39 AMU
Quasi RRHO          ...     True
Cut-Off Frequency   ...     1.00 cm^-1

Throughout the following assumptions are being made:
  (1) The electronic state is orbitally nondegenerate
  (2) There are no thermally accessible electronically excited states
  (3) Hindered rotations indicated by low frequency modes are not
      treated as such but are treated as vibrations and this may
      cause some error
  (4) All equations used are the standard statistical mechanics
      equations for an ideal gas
  (5) All vibrations are strictly harmonic

freq.     168.28  E(vib)   ...       1.76 
freq.     168.39  E(vib)   ...       1.76 
freq.     172.18  E(vib)   ...       1.75 
freq.     821.55  E(vib)   ...       1.04 
freq.     821.60  E(vib)   ...       1.04 
freq.     919.36  E(vib)   ...       0.95 
freq.    1362.51  E(vib)   ...       0.64 
freq.    1362.60  E(vib)   ...       0.64 
freq.    3184.46  E(vib)   ...       0.09 
freq.    3398.43  E(vib)   ...       0.07 
freq.    3398.69  E(vib)   ...       0.07 

------------
INNER ENERGY
------------

The inner energy is: U= E(el) + E(ZPE) + E(vib) + E(rot) + E(trans)
    E(el)   - is the total energy from the electronic structure calculation
              = E(kin-el) + E(nuc-el) + E(el-el) + E(nuc-nuc)
    E(ZPE)  - the the zero temperature vibrational energy from the frequency calculation
    E(vib)  - the the finite temperature correction to E(ZPE) due to population
              of excited vibrational states
    E(rot)  - is the rotational thermal energy
    E(trans)- is the translational thermal energy

Summary of contributions to the inner energy U:
Electronic energy                ...  -3073.63306110 Eh
Zero point energy                ...      0.03594507 Eh      22.56 kcal/mol
Thermal vibrational correction   ...      0.01564077 Eh       9.81 kcal/mol
Thermal rotational correction    ...      0.00475020 Eh       2.98 kcal/mol
Thermal translational correction ...      0.00475020 Eh       2.98 kcal/mol
-----------------------------------------------------------------------
Total thermal energy                  -3073.57197488 Eh


Summary of corrections to the electronic energy:
(perhaps to be used in another calculation)
Total thermal correction                  0.02514116 Eh      15.78 kcal/mol
Non-thermal (ZPE) correction              0.03594507 Eh      22.56 kcal/mol
-----------------------------------------------------------------------
Total correction                          0.06108623 Eh      38.33 kcal/mol


--------
ENTHALPY
--------

The enthalpy is H = U + kB*T
                kB is Boltzmann's constant
Total thermal energy              ...  -3073.57197488 Eh 
Thermal Enthalpy correction       ...      0.00316689 Eh       1.99 kcal/mol
-----------------------------------------------------------------------
Total Enthalpy                    ...  -3073.56880798 Eh


Note: Only C1 symmetry has been detected, increase convergence thresholds 
      if your molecule has a higher symmetry. Symmetry factor of 1.0 is   
      used for the rotational entropy correction. 
 

Note: Rotational entropy computed according to Herzberg 
Infrared and Raman Spectra, Chapter V,1, Van Nostrand Reinhold, 1945 
Point Group:  C1, Symmetry Number:   1  
Rotational constants in cm-1:     4.799525     0.028229     0.028229 

Vibrational entropy computed according to the QRRHO of S. Grimme
Chem.Eur.J. 2012 18 9955 using a reference frequency of 100.0 cm-1


-------
ENTROPY
-------

The entropy contributions are T*S = T*(S(el)+S(vib)+S(rot)+S(trans))
     S(el)   - electronic entropy
     S(vib)  - vibrational entropy
     S(rot)  - rotational entropy
     S(trans)- translational entropy
The entropies will be listed as multiplied by the temperature to get
units of energy

Electronic entropy                ...      0.00000000 Eh      0.00 kcal/mol
Vibrational entropy               ...      0.03386737 Eh     21.25 kcal/mol
Rotational entropy                ...      0.04646153 Eh     29.15 kcal/mol
Translational entropy             ...      0.07413572 Eh     46.52 kcal/mol
-----------------------------------------------------------------------
Final entropy term                ...      0.15446461 Eh     96.93 kcal/mol

In case the symmetry of your molecule has not been determined correctly
or in case you have a reason to use a different symmetry number we print 
out the resulting rotational entropy values for sn=1,12:

 non-linear molecules -----------------------------------
|  sn= 1 | S(rot)=       0.04646153 Eh     29.15 kcal/mol|
|  sn= 2 | S(rot)=       0.04426647 Eh     27.78 kcal/mol|
|  sn= 3 | S(rot)=       0.04298245 Eh     26.97 kcal/mol|
|  sn= 4 | S(rot)=       0.04207142 Eh     26.40 kcal/mol|
|  sn= 5 | S(rot)=       0.04136476 Eh     25.96 kcal/mol|
|  sn= 6 | S(rot)=       0.04078739 Eh     25.59 kcal/mol|
|  sn= 7 | S(rot)=       0.04029922 Eh     25.29 kcal/mol|
|  sn= 8 | S(rot)=       0.03987636 Eh     25.02 kcal/mol|
|  sn= 9 | S(rot)=       0.03950336 Eh     24.79 kcal/mol|
|  sn=10 | S(rot)=       0.03916971 Eh     24.58 kcal/mol|
|  sn=11 | S(rot)=       0.03886788 Eh     24.39 kcal/mol|
|  sn=12 | S(rot)=       0.03859233 Eh     24.22 kcal/mol|
 linear molecules ---------------------------------------
|  Dinfh | S(rot)=       0.03299238 Eh     20.70 kcal/mol|
|  Cinfv | S(rot)=       0.03518744 Eh     22.08 kcal/mol|
 --------------------------------------------------------


-------------------
GIBBS FREE ENERGY
-------------------

The Gibbs free energy is G = H - T*S

Total enthalpy                    ...  -3073.56880798 Eh 
Total entropy correction          ...     -0.15446461 Eh    -96.93 kcal/mol
-----------------------------------------------------------------------
Final Gibbs free energy         ...  -3073.72327260 Eh

For completeness - the Gibbs free energy minus the electronic energy
G-E(el)                           ...     -0.09021149 Eh    -56.61 kcal/mol


Maximum memory used throughout the entire PROP-calculation: 31.2 MB

--------------------------------
SUGGESTED CITATIONS FOR THIS RUN
--------------------------------

Below you find a list of papers that are relevant to this ORCA run
We neither can nor want to force you to cite these papers, but we appreciate if you do
You receive ORCA, which is the product of decades of hard work by many enthusiastic individuals, for free
The only thing we kindly ask in return is that you cite our papers,
We deeply appreciate it, if you show your appreciation for ORCA by not just citing the generic ORCA reference.

Please note that relegating all ORCA citations to the supporting information does *not* help us.
SI sections are not indexed - citations you put there will not count into any citation statistics
But we need these citations in order to attract the funding resources that allow us to do what we are doing

Therefore, if you are a happy ORCA user, please consider citing a few of the papers listed below in the main body of your paper

In addition to the list printed below, the program has created the file ts_thermo.bibtex that contains the list in bibtex format
You can import this file easily into all common literature databanks and citation aid programs


List of essential papers. We consider these as the minimum necessary citations

  1. Neese,F.
     Software update: the ORCA program system, version 5.0
     WIRES Comput. Molec. Sci., 2022 12(1)e1606
     doi.org/10.1002/wcms.1606

List of papers to cite with high priority. The work reported in these papers was absolutely
necessary for this run to complete.
Our perspective: the developers of density functionals and basis sets usually get cited in chemistry papers
Good! But without the algorithms to do something with them, the functionals or basis sets would not do anything.
Hence, in our opinion, the algorithm design and method developments papers are equally worthy of getting cited

  1. Neese,F.
     An improvement of the resolution of the identity approximation for the formation of the Coulomb matrix
     J. Comp. Chem., 2003 24(14)1740-1747
     doi.org/10.1002/jcc.10318
  2. Neese,F.; Wennmohs,F.; Hansen,A.; Becker,U.
     Efficient, approximate and parallel Hartree-Fock and hybrid DFT calculations. A 'chain-of-spheres' algorithm for the Hartree-Fock exchange
     Chem. Phys., 2009 356(1-3)98-109
     doi.org/10.1016/j.chemphys.2008.10.036
  3. Bykov,D.; Petrenko,T.; Izsak,R.; Kossmann,S.; Becker,U.; Valeev,E.; Neese,F.
     Efficient implementation of the analytic second derivatives of Hartree-Fock and hybrid DFT energies: a detailed analysis of different approximations
     Molec. Phys., 2015 113 1961-1977
     doi.org/10.1080/00268976.2015.1025114
  4. Helmich-Paris,B.; de Souza,B.; Neese,F.; Izsák,R.
     An improved chain of spheres for exchange algorithm
     J. Chem. Phys., 2021 155 104109
     doi.org/doi: 10.1063/5.0058766.
  5. Neese,F.
     The SHARK Integral Generation and Digestion System
     J. Comp. Chem., 2022  1-16
     doi.org/10.1002/jcc.26942

List of suggested additional citations. These are papers that are important in the 'surrounding' of 
of this run, or papers that preceded the highly important papers. If you like your results we are grateful for a citation.

  1. Izsak,R.; Neese,F.
     An overlap fitted chain of spheres exchange method
     J. Chem. Phys., 2011 135 144105
     doi.org/10.1063/1.3646921
  2. Izsak,R.; Hansen,A.; Neese,F.
     The resolution of identity and chain of spheres approximations for the LPNO-CCSD singles Fock term
     Molec. Phys., 2012 110 2413-2417
     doi.org/10.1080/00268976.2012.687466
  3. Neese,F.
     The ORCA program system
     WIRES Comput. Molec. Sci., 2012 2(1)73-78
     doi.org/10.1002/wcms.81
  4. Izsak,R.; Neese,F.; Klopper,W.
     Robust fitting techniques in the chain of spheres approximation to the Fock exchange: The role of the complementary space
     J. Chem. Phys., 2013 139 
     doi.org/10.1063/1.4819264
  5. Neese,F.
     Software update: the ORCA program system, version 4.0
     WIRES Comput. Molec. Sci., 2018 8(1)1-6
     doi.org/10.1002/wcms.1327
  6. Neese,F.; Wennmohs,F.; Becker,U.; Riplinger,C.
     The ORCA quantum chemistry program package
     J. Chem. Phys., 2020 152 Art. No. L224108
     doi.org/10.1063/5.0004608

List of optional additional citations

  1. Neese,F.
     Approximate second-order SCF convergence for spin unrestricted wavefunctions
     Chem. Phys. Lett., 2000 325(1-3)93-98
     doi.org/10.1016/s0009-2614(00)00662-x

Timings for individual modules:

Sum of individual times          ...       66.160 sec (=   1.103 min)
Startup calculation              ...        0.642 sec (=   0.011 min)   1.0 %
SCF iterations                   ...        7.080 sec (=   0.118 min)  10.7 %
Property integrals               ...        9.342 sec (=   0.156 min)  14.1 %
SCF Response                     ...        6.722 sec (=   0.112 min)  10.2 %
Property calculations            ...       42.373 sec (=   0.706 min)  64.0 %
                             ****ORCA TERMINATED NORMALLY****
TOTAL RUN TIME: 0 days 0 hours 1 minutes 6 seconds 369 msec
