
                                 *****************
                                 * O   R   C   A *
                                 *****************

                                            #,                                       
                                            ###                                      
                                            ####                                     
                                            #####                                    
                                            ######                                   
                                           ########,                                 
                                     ,,################,,,,,                         
                               ,,#################################,,                 
                          ,,##########################################,,             
                       ,#########################################, ''#####,          
                    ,#############################################,,   '####,        
                  ,##################################################,,,,####,       
                ,###########''''           ''''###############################       
              ,#####''   ,,,,##########,,,,          '''####'''          '####       
            ,##' ,,,,###########################,,,                        '##       
           ' ,,###''''                  '''############,,,                           
         ,,##''                                '''############,,,,        ,,,,,,###''
      ,#''                                            '''#######################'''  
     '                                                          ''''####''''         
             ,#######,   #######,   ,#######,      ##                                
            ,#'     '#,  ##    ##  ,#'     '#,    #''#        ,####,   ,####,        
            ##       ##  ##   ,#'  ##            #'  '#       #'       #'  '#        
            ##       ##  #######   ##           ,######,      #####,   #    #        
            '#,     ,#'  ##    ##  '#,     ,#' ,#      #,     #,   #   #,  ,#        
             '#######'   ##     ##  '#######'  #'      '#     '####' # '####'        



                #########################################################
                #                        -***-                          #
                #          Department of theory and spectroscopy        #
                #                                                       #
                #                      Frank Neese                      #
                #                                                       #
                #     Directorship, Architecture, Infrastructure        #
                #                    SHARK, DRIVERS                     #
                #        Core code/Algorithms in most modules           #
                #                                                       #
                #        Max Planck Institute fuer Kohlenforschung      #
                #                Kaiser Wilhelm Platz 1                 #
                #                 D-45470 Muelheim/Ruhr                 #
                #                      Germany                          #
                #                                                       #
                #                  All rights reserved                  #
                #                        -***-                          #
                #########################################################


                         Program Version 6.0.1  -  RELEASE   -


 With contributions from (in alphabetic order):
[Max-Planck-Institut fuer Kohlenforschung]                               
  Daniel Aravena         : Magnetic Suceptibility                        
  Michael Atanasov       : Ab Initio Ligand Field Theory (pilot matlab implementation)
  Alexander A. Auer      : GIAO ZORA, VPT2 properties, NMR spectrum      
  Ute Becker             : All parallelization in ORCA, NUMFREQ, NUMCALC 
  Giovanni Bistoni       : ED, misc. LED, open-shell LED, HFLD           
  Martin Brehm           : Molecular dynamics                            
  Dmytro Bykov           : pre 5.0 version of the SCF Hessian            
  Marcos Casanova-Páez   : Triplet and SCS-CIS(D). UHF-(DLPNO)-IP/EA/STEOM-CCSD. UHF-CVS-IP/STEOM-CCSD   
  Vijay G. Chilkuri      : MRCI spin determinant printing, contributions to CSF-ICE 
  Pauline Colinet        : FMM embedding                                 
  Dipayan Datta          : RHF DLPNO-CCSD density                        
  Achintya Kumar Dutta   : EOM-CC, STEOM-CC                              
  Nicolas Foglia         : Exact transition moments, OPA infrastructure, MCD improvements    
  Dmitry Ganyushin       : Spin-Orbit,Spin-Spin,Magnetic field MRCI      
  Miquel Garcia-Rates    : C-PCM and meta-GGA Hessian, CCSD/C-PCM, Gaussian charge scheme 
  Tiago L. C. Gouveia    : GS-ROHF, GS-ROCIS                             
  Yang Guo               : DLPNO-NEVPT2, F12-NEVPT2, CIM, IAO-localization        
  Andreas Hansen         : Spin unrestricted coupled pair/coupled cluster methods 
  Ingolf Harden          : AUTO-CI MPn and infrastructure                
  Benjamin Helmich-Paris : MC-RPA, TRAH-(SCF,CASSCF), AVAS, COSX integrals, SCF dyn. polar. 
  Lee Huntington         : MR-EOM, pCC                                   
  Robert Izsak           : Overlap fitted RIJCOSX, COSX-SCS-MP3, EOM     
  Riya Kayal             : Wick's Theorem for AUTO-CI, AUTO-CI UHF-CCSDT 
  Emily Kempfer          : AUTO-CI, RHF CISDT and CCSDT                  
  Christian Kollmar      : KDIIS, OOCD, Brueckner-CCSD(T), CCSD density, CASPT2, CASPT2-K, improved NEVPT2 
  Axel Koslowski         : Symmetry handling                             
  Simone Kossmann        : meta-GGA functionals, TD-DFT gradient, OOMP2, (MP2 Hessian; deprecated post 5.0) 
  Lucas Lang             : DCDCAS                                        
  Marvin Lechner         : AUTO-CI (C++ implementation), FIC-MRCC        
  Spencer Leger          : CASSCF response                               
  Dagmar Lenk            : GEPOL surface, SMD, ORCA-2-JSON               
  Dimitrios Liakos       : Extrapolation schemes; Compound Job, initial MDCI parallelization 
  Dimitrios Manganas     : Further ROCIS development; embedding schemes. LFT, Crystal Embedding 
  Dimitrios Pantazis     : SARC Basis sets                               
  Anastasios Papadopoulos: AUTO-CI, single reference methods and gradients 
  Taras Petrenko         : pre 6.0 DFT Hessian and TD-DFT gradient, (ASA, deprecated), ECA, 1-Electron XAS/XES, NRVS 
  Peter Pinski           : DLPNO-MP2, DLPNO-MP2 Gradient                 
  Christoph Reimann      : Effective Core Potentials                     
  Marius Retegan         : Local ZFS, SOC                                
  Christoph Riplinger    : Optimizer, TS searches, QM/MM, DLPNO-CCSD(T), (RO)-DLPNO pert. Triples 
  Michael Roemelt        : Original ROCIS implementation                 
  Masaaki Saitow         : Open-shell DLPNO-CCSD energy and density      
  Barbara Sandhoefer     : DKH picture change effects                    
  Kantharuban Sivalingam : CASSCF convergence/infrastructure, NEVPT2 and variants, FIC-MRCI 
  Bernardo de Souza      : ESD, SOC TD-DFT                               
  Georgi L. Stoychev     : AutoAux, RI-MP2 NMR, DLPNO-MP2 response, X2C  
  Van Anh Tran           : RI-MP2 g-tensors                              
  Willem Van den Heuvel  : Paramagnetic NMR                              
  Zikuan Wang            : NOTCH, Electric field optimization            
  Frank Wennmohs         : Technical directorship and infrastructure     
  Hang Xu                : AUTO-CI-Response properties                   
                                                                         
[FACCTs GmbH]                                                            
  Markus Bursch, Miquel Garcia-Rates, Christoph Riplinger, Bernardo de Souza, Georgi L. Stoychev 
                                                                 
  APM, Basis sets (HGBS, AHGBS, def-TZVP (Ac-Lr), def2-XVPD (La-Lu)), CI-OPT, improved COSX, DLPNO-Multilevel,           
  DOCKER, DRACO, updates on ESD, GOAT, IRC, LR-CPCM, MBIS, meta-GGA TD-DFT gradient, ML-optimized integration grids, 
  MM, NACMEs, nearIR, NEB, NEB-TS, NL-DFT gradient (VV10), 2- and 3-layer-ONIOM, interface openCOSMO-RS, QMMM,   
  Crystal-QMMM, SF, symmetry and pop. for TD-DFT, r2SCAN hybrids, SOLVATOR                                   
                                                                         
[Other institutions]                                                     
  V. Asgeirsson          : NEB                                           
  Christoph Bannwarth    : sTDA-DFT, sTD-DFT, PBEh-3c, B97-3c, D3        
  Sebastian Ehlert       : rSCAN, r2SCAN, r2SCAN-3c, D4, dhf basis sets  
  Marvin Friede          : D4 for Fr, Ra, Ac-Lr                          
  Lars Goerigk           : TD-DFT with DH, B97 family of functionals     
  Stefan Grimme          : VdW corrections, initial TS optimization, DFT functionals, gCP, sTDA/sTD-DF 
  Waldemar Hujo          : DFT-NL                                        
  H. Jonsson             : NEB                                           
  Holger Kruse           : gCP                                           
  Marcel Mueller         : wB97X-3c, vDZP basis set                      
  Hagen Neugebauer       : wr2SCAN                                       
  Tobias Risthaus        : range-separated hybrid DFT                    
  Lukas Wittmann         : regularized MP2, r2SCAN double-hybrids, wr2SCAN        
                                                                         
We gratefully acknowledge several colleagues who have allowed us to      
interface, adapt or use parts of their codes:                            
  Ed Valeev, F. Pavosevic, A. Kumar             : LibInt (2-el integral package), F12 methods 
  Garnet Chan, S. Sharma, J. Yang, R. Olivares  : DMRG                   
  Ulf Ekstrom                                   : XCFun DFT Library      
  Mihaly Kallay                                 : mrcc  (arbitrary order and MRCC methods)
  Frank Weinhold                                : gennbo (NPA and NBO analysis)           
  Simon Mueller                                 : openCOSMO-RS                            
  Christopher J. Cramer and Donald G. Truhlar   : smd solvation model                     
  S Lehtola, MJT Oliveira, MAL Marques          : LibXC Library                           
  Liviu Ungur et al                             : ANISO software                          


 Your calculation uses the libint2 library for the computation of 2-el integrals
 For citations please refer to: http://libint.valeyev.net

 Your ORCA version has been built with support for libXC version: 6.2.2
 For citations please refer to: https://libxc.gitlab.io

 This ORCA versions uses:
   CBLAS   interface :  Fast vector & matrix operations
   LAPACKE interface :  Fast linear algebra routines
   SCALAPACK package :  Parallel linear algebra routines
   Shared memory     :  Shared parallel matrices
   BLAS/LAPACK       :  OpenBLAS 0.3.27  USE64BITINT DYNAMIC_ARCH NO_AFFINITY Cooperlake SINGLE_THREADED
        Core in use  :  Cooperlake
   Copyright (c) 2011-2014, The OpenBLAS Project




***************************************
The coordinates will be read from file: reactant_opt.xyz
***************************************


Your calculation utilizes a Nudged-Elastic-Band implementation
 by V.Asgeirsson, C. Riplinger & H. Jonsson
Please cite in your paper:
 V. Asgeirsson et al., in prep. (2019)
   

Warning: RI is on but no J-basis has been assigned. Assigning Def2/J (nothing to worry about!)
================================================================================

----- Orbital basis set information -----
Your calculation utilizes the basis: def2-SVP
   F. Weigend and R. Ahlrichs, Phys. Chem. Chem. Phys. 7, 3297 (2005).

----- AuxJ basis set information -----
Your calculation utilizes the auxiliary basis: def2/J
   F. Weigend, Phys. Chem. Chem. Phys. 8, 1057 (2006).

================================================================================
                                        WARNINGS
                       Please study these warnings very carefully!
================================================================================


WARNING: Geometry Optimization
  ===> : Switching off AutoStart
         For restart on a previous wavefunction, please use MOREAD

================================================================================
                                       INPUT FILE
================================================================================
NAME = neb.inp
|  1> # SN2 Transition State search using my proven template
|  2> ! Freq B3LYP def2-SVP NEB-TS
|  3> 
|  4> %NEB
|  5>  NEB_END_XYZFILE "product_opt.xyz"
|  6> end
|  7> 
|  8> %geom
|  9>  MaxIter 600
| 10> end
| 11> 
| 12> # Using the optimized reactant with the correct charge for SN2
| 13> * xyzfile -1 1 reactant_opt.xyz
| 14> 
| 15>                          ****END OF INPUT****
================================================================================


--------------------------------------------------------------------------------
                        Nudged Elastic Band Calculation
--------------------------------------------------------------------------------

Number of images (incl. end points)     ....  10
Number of intermediate images           ....  8
Number of optimized images              ....  8
Optimization of end points before NEB   ....  NO
Use existing gbw files for MO input     ....  NO
Number of atoms                         ....  6
Number of (active) degrees of freedom   ....  18
Constrained atoms                       ....  None

-----------------------------------------
  REACTANT (ANGSTROEM)
-----------------------------------------
C     -2.081149     3.357535     0.070010 
H     -1.011250     3.494910     0.226940 
Br    -3.002189     5.144508     0.572870 
H     -2.491174     2.590893     0.727584 
H     -2.314469     3.160217    -0.976345 
Cl    -0.787470     0.859747    -0.621070 

-----------------------------------------
  PRODUCT (ANGSTROEM)
-----------------------------------------
C     -3.012470     1.360708    -0.076783 
H     -1.963780     1.536159    -0.333644 
Br    -1.270685    -1.366173     0.524577 
H     -3.409826     0.542420    -0.684172 
H     -3.095984     1.108978     0.984406 
Cl    -3.983756     2.892518    -0.414393 



----------------------
NEB settings
----------------------
Method type                             ....  climbing image
Threshold for climbing image            ....  2.00e-02 Eh/Bohr 
Free endpoints                          ....  off 
Tangent type                            ....  improved 
Number of intermediate images           ....  8 
Number of images free to move           ....  8 
Spring type for image distribution      ....  distance between adjacent images 
Spring constant                         ....  energy weighted (0.0100 -to- 0.1000) Eh/Bohr^2 
Spring force perp. to the path          ....  none 
Generation of initial path              ....  image dependent pair potential 
Initial path via TS guess               ....  off 

Minimization of RMSD: Rotation          ....  always 
Minimization of RMSD: Translation type  ....  centroid 
Center fixed to origin                  ....  true 
Remove external force                   ....  true 

Reparametrization of the path           ....  off 
Convergence thresholds:
Convergence monitored for               ....  all images
Scaling factor                          ....  10.00

Convergence parameters for regular images:
               Max(|Fp|)                ....  2.00e-02 Eh/Bohr
               RMS(Fp)                  ....  1.00e-02 Eh/Bohr

Convergence parameters for climbing image:
               Max(|F|)                 ....  2.00e-03 Eh/Bohr
               RMS(F)                   ....  1.00e-03 Eh/Bohr
Optimization method:
Method                                  ....  L-BFGS
Max. iterations                         ....  500 
Step size                               ....  1.00 
Maximum allowed step size               ....  0.10 Bohr

LBFGS parameters: 
               Memory                   ....  20 
               Initial step size        ....  0.0010 
               Estimate curvature       ....  YES 
               Reset on maxmove         ....  YES 
               Reparam. on reset        ....  NO 
Generation of  the initial path:
Minimize RMSD between reactant and product configurations     .... done
       RMSD before minimization         ....  4.1164 Bohr
       RMSD after minimization          ....  0.4184 Bohr
Performing linear interpolation         ....  done
Fragment preparation                           ....  true
Bond cutoff factor                             ....  1.200e+00
Max. fragment distance                         ....  3.500e+00 Ang.
Interpolation using                            ....  IDPP (Image Dependent Pair Potential)
IDPP-Settings:
       Initial path for IDPP optimization      ....  Linear interpolation
       Pairwise distance interpolation         ....  Linear
       Remove global transl. and rot.          ....  true
       Convergence tolerance                   ....  0.0100 1/Ang.^3
       Max. number of iterations               ....    7000
       Spring constant                         ....  1.0000 1/Ang.^4
       Time step                               ....  0.0100 fs
       Max. movement per iteration             ....  0.0500 Ang.
       Full print                              ....  false 
idpp initial path generation successfully converged in 94 iterations
Displacement along initial path:              1.7998 Bohr
Writing initial trajectory to file      ....  neb_initial_path_trj.xyz



----------------------
NEB OPTIMIZATION      
----------------------

Following output files will be written:
Energy profile during opt. written to    ....  neb.interp
Optimization log-file                    ....  neb.NEB.log
Current trajectory will be written to    ....  neb_MEP_trj.xyz
       and to allxyz file                ....  neb_MEP.allxyz
       and individual images to xyz file ....  neb_im{NIm}.xyz
Trajectory history will be written to    ....  neb_MEP_ALL_trj.xyz
Converged CI will be written to          ....  neb_NEB-CI_converged.xyz
Converged TS will be written to          ....  neb_NEB-TS_converged.xyz

Single point energy and gradient calculation of reactant and
product configurations (have to be performed only once)

------------------------------------------------------------------------------
                         ORCA PROPERTY INTEGRAL CALCULATIONS
------------------------------------------------------------------------------

GBWName                                   ... neb_im0.gbw
Number of atoms                           ...      6
Number of basis functions                 ...     79
Max core memory                           ...   1024 MB

Dipole integrals                          ... YES
Quadrupole integrals                      ...  NO
Linear momentum integrals                 ...  NO
Angular momentum integrals                ...  NO
Higher moments length integrals           ...  NO
Higher moments velocity integrals         ...  NO
Kinetic energy integrals                  ...  NO
GIAO right hand sides                     ...  NO
GIAO dipole derivative integrals          ...  NO
SOC integrals                             ...  NO
EPR diamagnetic integrals (GIAO)          ...  NO
EPR gauge integrals                       ...  NO
Field gradient integrals                  ...  NO (   0 nuclei)
Spin-dipole/Fermi contact integrals       ...  NO (   0 nuclei)
Contact density integrals                 ...  NO (   0 nuclei)
Nucleus-orbit integrals                   ...  NO (   0 nuclei)
Geometric perturbations                   ... YES (   6 nuclei)

Choice of electric origin   ... Center of mass
Position of electric origin ... ( -0.6473,  1.2580,  0.3561) 
Choice of magnetic origin   ... GIAO
Position of magnetic origin ... (  0.0000,  0.0000,  0.0000) 

Calculating integrals                     ... Electric Dipole (Length)     done (  0.0 sec)
Calculating integrals                     ... Geometrical perturbation right hand sides

-----------------------
GEOMETRIC PERTURBATIONS (6 nuclei)
-----------------------

MaxCore                            ...   1024 MB
Number of batches                  ...      1

BATCH   0: Atoms    0 -    5 ( 18 perturbations)
   => H(core) and overlap derivative integrals     ... done (     0.0 sec)
   => Making and storing internal U-coefficients   ... done (     0.0 sec)
   => RI-J derivative integrals                    ... done (     0.4 sec)
   => RI-J response operators                      ... done (     0.1 sec)
   => Chain of spheres derivative integrals        ... done (     3.0 sec)
   => Chain of spheres response operator           ... done (     1.6 sec)
   => XC derivative integrals                      ... done (     4.4 sec)
   => XC response operators                        ... done (     0.9 sec)
   => Completing and storing right hand sides      ... done (     0.0 sec)
   => Total time for right hand sides =  10.6 sec

  geometrical perturbations done ( 10.6 sec)

Property integrals calculated in  10.6 sec

Maximum memory used throughout the entire PROPINT-calculation: 15.6 MB

------------------------------------------------------------------------------
                         ORCA PROPERTY INTEGRAL CALCULATIONS
------------------------------------------------------------------------------

GBWName                                   ... neb_im9.gbw
Number of atoms                           ...      6
Number of basis functions                 ...     79
Max core memory                           ...   1024 MB

Dipole integrals                          ... YES
Quadrupole integrals                      ...  NO
Linear momentum integrals                 ...  NO
Angular momentum integrals                ...  NO
Higher moments length integrals           ...  NO
Higher moments velocity integrals         ...  NO
Kinetic energy integrals                  ...  NO
GIAO right hand sides                     ...  NO
GIAO dipole derivative integrals          ...  NO
SOC integrals                             ...  NO
EPR diamagnetic integrals (GIAO)          ...  NO
EPR gauge integrals                       ...  NO
Field gradient integrals                  ...  NO (   0 nuclei)
Spin-dipole/Fermi contact integrals       ...  NO (   0 nuclei)
Contact density integrals                 ...  NO (   0 nuclei)
Nucleus-orbit integrals                   ...  NO (   0 nuclei)
Geometric perturbations                   ... YES (   6 nuclei)

Choice of electric origin   ... Center of mass
Position of electric origin ... ( -0.9237,  1.7995,  0.5015) 
Choice of magnetic origin   ... GIAO
Position of magnetic origin ... (  0.0000,  0.0000,  0.0000) 

Calculating integrals                     ... Electric Dipole (Length)     done (  0.0 sec)
Calculating integrals                     ... Geometrical perturbation right hand sides

-----------------------
GEOMETRIC PERTURBATIONS (6 nuclei)
-----------------------

MaxCore                            ...   1024 MB
Number of batches                  ...      1

BATCH   0: Atoms    0 -    5 ( 18 perturbations)
   => H(core) and overlap derivative integrals     ... done (     0.0 sec)
   => Making and storing internal U-coefficients   ... done (     0.0 sec)
   => RI-J derivative integrals                    ... done (     0.4 sec)
   => RI-J response operators                      ... done (     0.1 sec)
   => Chain of spheres derivative integrals        ... done (     2.9 sec)
   => Chain of spheres response operator           ... done (     1.6 sec)
   => XC derivative integrals                      ... done (     4.0 sec)
   => XC response operators                        ... done (     0.8 sec)
   => Completing and storing right hand sides      ... done (     0.0 sec)
   => Total time for right hand sides =  10.0 sec

  geometrical perturbations done ( 10.0 sec)

Property integrals calculated in  10.0 sec

Maximum memory used throughout the entire PROPINT-calculation: 15.9 MB
Properties of fixed NEB end points:
               Reactant:
                         E               ....  -3073.635927 Eh
                         RMS(F)          ....      0.000067 Eh/Bohr
                         MAX(|F|)        ....      0.000150 Eh/Bohr
               Product:
                         E               ....  -3073.652661 Eh
                         RMS(F)          ....      0.000023 Eh/Bohr
                         MAX(|F|)        ....      0.000054 Eh/Bohr



Starting iterations:

Optim.  Iteration  HEI  E(HEI)-E(0)  max(|Fp|)   RMS(Fp)    dS
Switch-on CI threshold               0.020000 
   LBFGS     0      3    0.004017    0.012918   0.003620  1.7998       

Image  3 will be converted to a climbing image in the next iteration (max(|Fp|) < 0.0200) 

Optim.  Iteration  CI   E(CI)-E(0)   max(|Fp|)   RMS(Fp)    dS     max(|FCI|)   RMS(FCI)
Convergence thresholds               0.020000   0.010000            0.002000    0.001000 
   LBFGS     1      3    0.003545    0.010954   0.003538  1.8746    0.006400    0.003133       
   LBFGS     2      3    0.003109    0.006728   0.002083  1.9271    0.004318    0.002019       
   LBFGS     3      3    0.003043    0.013287   0.003216  2.0211    0.011416    0.004533       
   LBFGS     4      3    0.002867    0.001583   0.000436  2.0185    0.001637    0.000568       

                                .--------------------.
          ----------------------| CI-NEB convergence |-------------------------
          Item                value                   Tolerance       Converged
          ---------------------------------------------------------------------
          RMS(Fp)             0.0004355286            0.0100000000      YES
          MAX(|Fp|)           0.0015828697            0.0200000000      YES
          RMS(FCI)            0.0005678166            0.0010000000      YES
          MAX(|FCI|)          0.0016371583            0.0020000000      YES
          ---------------------------------------------------------------------

The elastic band and climbing image have converged successfully to a MEP in 4 iterations!


                    *********************H U R R A Y*********************
                    ***        THE NEB OPTIMIZATION HAS CONVERGED     ***
                    *****************************************************



---------------------------------------------------------------
                         PATH SUMMARY              
---------------------------------------------------------------
All forces in Eh/Bohr.

Image Dist.(Ang.)    E(Eh)   dE(kcal/mol)  max(|Fp|)  RMS(Fp)
  0     0.000   -3073.63593      0.00       0.00011   0.00006
  1     0.162   -3073.63456      0.86       0.00107   0.00045
  2     0.257   -3073.63334      1.63       0.00083   0.00040
  3     0.326   -3073.63306      1.80       0.00126   0.00052 <= CI
  4     0.385   -3073.63351      1.52       0.00158   0.00061
  5     0.457   -3073.63504      0.56       0.00130   0.00068
  6     0.610   -3073.64141     -3.44       0.00119   0.00048
  7     0.775   -3073.64928     -8.38       0.00067   0.00026
  8     0.906   -3073.65196    -10.06       0.00142   0.00046
  9     1.068   -3073.65266    -10.50       0.00005   0.00002

Straight line distance between images along the path:
        D( 0- 1) =   0.1615 Ang.
        D( 1- 2) =   0.0950 Ang.
        D( 2- 3) =   0.0694 Ang.
        D( 3- 4) =   0.0589 Ang.
        D( 4- 5) =   0.0723 Ang.
        D( 5- 6) =   0.1523 Ang.
        D( 6- 7) =   0.1656 Ang.
        D( 7- 8) =   0.1313 Ang.
        D( 8- 9) =   0.1617 Ang.

---------------------------------------------------------------
               INFORMATION ABOUT SADDLE POINT     
---------------------------------------------------------------

Climbing image                            ....  3 
Energy                                    ....  -3073.63305943 Eh
Max. abs. force                           ....  1.6372e-03 Eh/Bohr

-----------------------------------------
  SADDLE POINT (ANGSTROEM)
-----------------------------------------
C     -0.024911     0.045185     0.011628 
H      0.972350     0.402764     0.234648 
Br    -1.095978     2.124473     0.594027 
H     -0.559403    -0.533156     0.752336 
H     -0.375846     0.054726    -1.010435 
Cl     1.083788    -2.093992    -0.582204 

-----------------------------------------
  FORCES (Eh/Bohr)
-----------------------------------------
C      0.001637    -0.000138     0.000511 
H     -0.000630    -0.000308    -0.000166 
Br     0.000031    -0.000199    -0.000087 
H     -0.000223    -0.000286     0.000271 
H     -0.000251    -0.000090    -0.000764 
Cl    -0.000564     0.001021     0.000236 

-----------------------------------------
  UNIT TANGENT
-----------------------------------------
C      0.384048    -0.751204    -0.210805 
H      0.025583     0.087178     0.031531 
Br    -0.137280     0.266088     0.075202 
H     -0.063577     0.033030     0.059642 
H     -0.051767     0.063726    -0.038727 
Cl    -0.157007     0.301183     0.083157 
 => Unit tangent is an approximation to the TS mode at the saddle point

Next a TS optimization is performed on the CI from the NEB run.

         *************************************************************
         *                       TS OPTIMIZATION                     *
         *************************************************************


Following output files will be written:
Converged TS will be written to          ....  neb_NEB-TS_converged.xyz
                                         ....  neb.xyz
Current trajectory will be written to    ....  neb_trj.xyz
Initial Hessian will be stored in        ....  neb.appr.hess
 (Almloef) Geometry optimization settings:
Update method            Update   .... Bofill
Choice of coordinates    CoordSys .... (2022) Redundant Internals
Initial Hessian          InHess   .... Read
Max. no of cycles        MaxIter  .... 600

Convergence Tolerances:
Energy Change            TolE     ....  5.0000e-06 Eh
Max. Gradient            TolMAXG  ....  3.0000e-04 Eh/bohr
RMS Gradient             TolRMSG  ....  1.0000e-04 Eh/bohr
Max. Displacement        TolMAXD  ....  4.0000e-03 bohr
RMS Displacement         TolRMSD  ....  2.0000e-03 bohr
Strict Convergence                .... False

------------------------------------------------------------------------------
                        ORCA OPTIMIZATION COORDINATE SETUP
------------------------------------------------------------------------------

The optimization will be done in redundant internal coordinates (2022)
Making redundant internal coordinates   ...  (2022 redundants) done
Following TS mode number                ...     0
TS-active-atoms for coordinate setup... 0 5 
Evaluating the initial hessian          ... (Reading Exact Hessian)...  
InHessName: neb.appr.hess	The file <neb.appr.hess> is opened as a .hess file
done
done
Evaluating the coordinates              ...  done
Calculating the B-matrix                .... done
Calculating the G-matrix                .... done
Diagonalizing the G-matrix              .... done
The first mode is                       ....    5
The number of degrees of freedom        ....   12

    -----------------------------------------------------------------
                    Redundant Internal Coordinates


    -----------------------------------------------------------------
         Definition                    Initial Value    d2E/dq (diagonal element)
    -----------------------------------------------------------------
      1. B(H   1,C   0)                  1.0826         0.355591   
      2. B(Br  2,C   0)                  2.4104         0.035433   
      3. B(H   3,C   0)                  1.0811         0.357802   
      4. B(H   4,C   0)                  1.0807         0.358200   
      5. B(Cl  5,H   1)                  2.6293         0.007971   
      6. B(Cl  5,H   3)                  2.6301         0.008056   
      7. B(Cl  5,C   0)                  2.4815         0.007483   
      8. B(Cl  5,H   4)                  2.6327         0.008098   
      9. A(H   1,C   0,H   3)          119.4029         0.196000   
     10. A(Br  2,C   0,H   3)           94.3725         0.171410   
     11. A(H   1,C   0,H   4)          119.4083         0.196087   
     12. A(Br  2,C   0,H   4)           94.3933         0.171648   
     13. A(H   3,C   0,H   4)          119.4821         0.196107   
     14. A(H   1,C   0,Cl  5)           85.5532         0.008570   
     15. A(H   3,C   0,Cl  5)           85.6235         0.008536   
     16. A(H   4,C   0,Cl  5)           85.7778         0.008610   
     17. A(H   1,C   0,Br  2)           94.2796         0.171493   
    -----------------------------------------------------------------

Number of atoms                         .... 6
Number of degrees of freedom            .... 17


         *************************************************************
         *                GEOMETRY OPTIMIZATION CYCLE   1            *
         *************************************************************
------------------------------------------------------------------------------
                             ORCA STARTUP CALCULATIONS
                           -- RI-GTO INTEGRALS CHOSEN --
------------------------------------------------------------------------------
------------------------------------------------------------------------------
                   ___                                                        
                  /   \      - P O W E R E D   B Y -                         
                 /     \                                                     
                 |  |  |   _    _      __       _____    __    __             
                 |  |  |  | |  | |    /  \     |  _  \  |  |  /  |          
                  \  \/   | |  | |   /    \    | | | |  |  | /  /          
                 / \  \   | |__| |  /  /\  \   | |_| |  |  |/  /          
                |  |  |   |  __  | /  /__\  \  |    /   |      \           
                |  |  |   | |  | | |   __   |  |    \   |  |\   \          
                \     /   | |  | | |  |  |  |  | |\  \  |  | \   \       
                 \___/    |_|  |_| |__|  |__|  |_| \__\ |__|  \__/        
                                                                              
                      - O R C A' S   B I G   F R I E N D -                    
                                      &                                       
                       - I N T E G R A L  F E E D E R -                       
                                                                              
 v1 FN, 2020, v2 2021, v3 2022-2024                                           
------------------------------------------------------------------------------


----------------------
SHARK INTEGRAL PACKAGE
----------------------

Number of atoms                             ...      6
Number of basis functions                   ...     79
Number of shells                            ...     35
Maximum angular momentum                    ...      2
Integral batch strategy                     ... SHARK/LIBINT Hybrid
RI-J (if used) integral strategy            ... SPLIT-RIJ (Revised 2003 algorithm where possible)
Printlevel                                  ...      1
Contraction scheme used                     ... SEGMENTED contraction
Prescreening option                         ... SCHWARTZ
   Thresh                                   ... 2.500e-11
   Tcut                                     ... 2.500e-12
   Tpresel                                  ... 2.500e-12 
Coulomb Range Separation                    ... NOT USED
Exchange Range Separation                   ... NOT USED
Multipole approximations                    ... NOT USED
Finite Nucleus Model                        ... NOT USED
CABS basis                                  ... NOT available
Auxiliary Coulomb fitting basis             ... AVAILABLE
   # of basis functions in Aux-J            ...    191
   # of shells in Aux-J                     ...     65
   Maximum angular momentum in Aux-J        ...      4
Auxiliary J/K fitting basis                 ... NOT available
Auxiliary Correlation fitting basis         ... NOT available
Auxiliary 'external' fitting basis          ... NOT available

Checking pre-screening integrals            ... done (  0.0 sec) Dimension = 35
Check shell pair data                       ... done (  0.0 sec)
Shell pair information
Shell pair cut-off parameter TPreSel        ...   2.5e-12
Total number of shell pairs                 ...       630
Shell pairs after pre-screening             ...       575
Total number of primitive shell pairs       ...      2935
Primitive shell pairs kept                  ...      2022
          la=0 lb=0:    156 shell pairs
          la=1 lb=0:    199 shell pairs
          la=1 lb=1:     73 shell pairs
          la=2 lb=0:     80 shell pairs
          la=2 lb=1:     54 shell pairs
          la=2 lb=2:     13 shell pairs

Calculating one electron integrals          ... done (  0.0 sec)
Calculating RI/J V-Matrix + Cholesky decomp.... done (  0.0 sec)
Calculating Nuclear repulsion               ... done (  0.0 sec) ENN=    172.596432438996 Eh

Diagonalization of the overlap matrix:
Smallest eigenvalue                        ... 1.443e-02
Time for diagonalization                   ...    0.000 sec
Threshold for overlap eigenvalues          ... 1.000e-07
Number of eigenvalues below threshold      ... 0
Time for construction of square roots      ...    0.000 sec
Total time needed                          ...    0.001 sec

-------------------
DFT GRID GENERATION
-------------------

General Integration Accuracy     IntAcc      ... 4.388
Radial Grid Type                 RadialGrid  ... OptM3 with GC (2021)
Angular Grid (max. ang.)         AngularGrid ... 4 (Lebedev-302)
Angular grid pruning method      GridPruning ... 4 (adaptive)
Weight generation scheme         WeightScheme... mBecke (2022)
Basis function cutoff            BFCut       ... 1.0000e-11
Integration weight cutoff        WCut        ... 1.0000e-14
Partially contracted basis set               ... off
Rotationally invariant grid construction     ... off
Angular grids for H and He will be reduced by one unit
Core-polarized basis detected: some atoms will have their core
                               angular grid increased.

Total number of grid points                  ...    34625
Total number of batches                      ...      544
Average number of points per batch           ...       63
Average number of grid points per atom       ...     5771

--------------------
COSX GRID GENERATION
--------------------

GRIDX 1
-------
General Integration Accuracy     IntAcc      ... 3.816
Radial Grid Type                 RadialGrid  ... OptM3 with GC (2021)
Angular Grid (max. ang.)         AngularGrid ... 1 (Lebedev-50)
Angular grid pruning method      GridPruning ... 4 (adaptive)
Weight generation scheme         WeightScheme... mBecke (2022)
Basis function cutoff            BFCut       ... 1.0000e-11
Integration weight cutoff        WCut        ... 1.0000e-14
Partially contracted basis set               ... on
Rotationally invariant grid construction     ... off
Angular grids for H and He will be reduced by one unit
Core-polarized basis detected: some atoms will have their core
                               angular grid increased.

Total number of grid points                  ...    10253
Total number of batches                      ...       83
Average number of points per batch           ...      123
Average number of grid points per atom       ...     1709
UseSFitting                                  ... on

GRIDX 2
-------
General Integration Accuracy     IntAcc      ... 4.020
Radial Grid Type                 RadialGrid  ... OptM3 with GC (2021)
Angular Grid (max. ang.)         AngularGrid ... 2 (Lebedev-110)
Angular grid pruning method      GridPruning ... 4 (adaptive)
Weight generation scheme         WeightScheme... mBecke (2022)
Basis function cutoff            BFCut       ... 1.0000e-11
Integration weight cutoff        WCut        ... 1.0000e-14
Partially contracted basis set               ... on
Rotationally invariant grid construction     ... off
Angular grids for H and He will be reduced by one unit
Core-polarized basis detected: some atoms will have their core
                               angular grid increased.

Total number of grid points                  ...    12438
Total number of batches                      ...      101
Average number of points per batch           ...      123
Average number of grid points per atom       ...     2073
UseSFitting                                  ... on

GRIDX 3
-------
General Integration Accuracy     IntAcc      ... 4.338
Radial Grid Type                 RadialGrid  ... OptM3 with GC (2021)
Angular Grid (max. ang.)         AngularGrid ... 3 (Lebedev-194)
Angular grid pruning method      GridPruning ... 4 (adaptive)
Weight generation scheme         WeightScheme... mBecke (2022)
Basis function cutoff            BFCut       ... 1.0000e-11
Integration weight cutoff        WCut        ... 1.0000e-14
Partially contracted basis set               ... on
Rotationally invariant grid construction     ... off
Angular grids for H and He will be reduced by one unit
Core-polarized basis detected: some atoms will have their core
                               angular grid increased.

Total number of grid points                  ...    20578
Total number of batches                      ...      164
Average number of points per batch           ...      125
Average number of grid points per atom       ...     3430
UseSFitting                                  ... on
Initializing property integral containers    ... done (  0.0 sec)

SHARK setup successfully completed in   0.3 seconds

Maximum memory used throughout the entire STARTUP-calculation: 16.7 MB
-------------------------------------------------------------------------------
                                 ORCA GUESS
                   Start orbitals & Density for SCF / CASSCF
-------------------------------------------------------------------------------

------------
SCF SETTINGS
------------
Hamiltonian:
 Density Functional     Method          .... DFT(GTOs)
 Exchange Functional    Exchange        .... B88
   X-Alpha parameter    XAlpha          ....  0.666667
   Becke's b parameter  XBeta           ....  0.004200
 Correlation Functional Correlation     .... LYP
 LDA part of GGA corr.  LDAOpt          .... VWN-5
 Gradients option       PostSCFGGA      .... off
 Hybrid DFT is turned on
   Fraction HF Exchange ScalHFX         ....  0.200000
   Scaling of DF-GGA-X  ScalDFX         ....  0.720000
   Scaling of DF-GGA-C  ScalDFC         ....  0.810000
   Scaling of DF-LDA-C  ScalLDAC        ....  1.000000
   Perturbative correction              ....  0.000000
   NL short-range parameter             ....  4.800000
 RI-approximation to the Coulomb term is turned on
   Number of AuxJ basis functions       .... 191
   RIJ-COSX (HFX calculated with COS-X)).... on


General Settings:
 Integral files         IntName         .... neb
 Hartree-Fock type      HFTyp           .... RHF
 Total Charge           Charge          ....   -1
 Multiplicity           Mult            ....    1
 Number of Electrons    NEL             ....   62
 Basis Dimension        Dim             ....   79
 Nuclear Repulsion      ENuc            ....    172.5964324390 Eh

Convergence Acceleration:
 AO-DIIS                CNVDIIS         .... on
   Start iteration      DIISMaxIt       ....    12
   Startup error        DIISStart       ....  0.200000
   # of expansion vecs  DIISMaxEq       ....     5
   Bias factor          DIISBfac        ....   1.050
   Max. coefficient     DIISMaxC        ....  10.000
 MO-DIIS                CNVKDIIS        .... off
 Trust-Rad. Augm. Hess. CNVTRAH         .... auto
   Auto Start mean grad. ratio tolernc. ....  1.125000
   Auto Start start iteration           ....     1
   Auto Start num. interpolation iter.  ....    10
   Max. Number of Micro iterations      ....    24
   Max. Number of Macro iterations      .... Maxiter - #DIIS iter
   Number of Davidson start vectors     ....     2
   Converg. threshold    (grad. norm)   ....   1.000e-05
   Grad. Scal. Fac. for Micro threshold ....   0.100
   Minimum threshold for Micro iter.    ....   1.000e-02
   NR start threshold (gradient norm)   ....   1.000e-04
   Initial trust radius                 ....   0.400
   Minimum AH scaling param. (alpha)    ....   1.000
   Maximum AH scaling param. (alpha)    .... 1000.000
   Quad. conv. algorithm                .... NR
   White noise on init. David. guess    .... on
   Maximum white noise                  ....   0.010
   Pseudo random numbers                .... off
   Inactive MOs                         .... canonical
   Orbital update algorithm             .... Taylor
   Preconditioner                       .... Diag
   Full preconditioner red. dimension   ....   250
 SOSCF                  CNVSOSCF        .... on
   Start iteration      SOSCFMaxIt      ....   150
   Startup grad/error   SOSCFStart      ....  0.003300
   Hessian update       SOSCFHessUp     .... L-BFGS
 Level Shifting         CNVShift        .... on
   Level shift para.    LevelShift      ....    0.2500
   Turn off err/grad.   ShiftErr        ....    0.0010
 Zerner damping         CNVZerner       .... off
 Static damping         CNVDamp         .... on
   Fraction old density DampFac         ....    0.7000
   Max. Damping (<1)    DampMax         ....    0.9800
   Min. Damping (>=0)   DampMin         ....    0.0000
   Turn off err/grad.   DampErr         ....    0.1000

SCF Procedure:
 Maximum # iterations   MaxIter         ....   125
 SCF integral mode      SCFMode         .... Direct
   Integral package                     .... SHARK and LIBINT hybrid scheme
 Reset frequency        DirectResetFreq ....    20
 Integral Threshold     Thresh          ....  2.500e-11 Eh
 Primitive CutOff       TCut            ....  2.500e-12 Eh

Convergence Tolerance:
 Convergence Check Mode ConvCheckMode   .... Total+1el-Energy
 Convergence forced     ConvForced      .... 0
 Energy Change          TolE            ....  1.000e-08 Eh
 1-El. energy change                    ....  1.000e-05 Eh
 Orbital Gradient       TolG            ....  1.000e-05
 Orbital Rotation angle TolX            ....  1.000e-05
 DIIS Error             TolErr          ....  5.000e-07

---------------------
INITIAL GUESS: MOREAD
---------------------
Guess MOs are being read from file: neb.gbw
Input Geometry matches current geometry (good)
Input basis set matches current basis set (good)
Occupation numbers will be reassigned to an Aufbau configuration
MOs were renormalized
MOs were reorthogonalized (Cholesky)
                      ------------------
                      INITIAL GUESS DONE (   0.0 sec)
                      ------------------
             **** ENERGY FILE WAS UPDATED (neb.en.tmp) ****
Finished Guess after   0.0 sec
Maximum memory used throughout the entire GUESS-calculation: 7.1 MB

-------------------------------------------------------------------------------------------
                                      ORCA LEAN-SCF
                              memory conserving SCF solver
-------------------------------------------------------------------------------------------

----------------------------------------D-I-I-S--------------------------------------------
Iteration    Energy (Eh)           Delta-E    RMSDP     MaxDP     DIISErr   Damp  Time(sec)
-------------------------------------------------------------------------------------------
               ***  Starting incremental Fock matrix formation  ***
                              *** Initializing SOSCF ***
---------------------------------------S-O-S-C-F--------------------------------------
Iteration    Energy (Eh)           Delta-E    RMSDP     MaxDP     MaxGrad    Time(sec)
--------------------------------------------------------------------------------------
    1    -3073.6330696772606643     0.00e+00  2.70e-07  4.26e-06  5.61e-07     0.4
               *** Restarting incremental Fock matrix formation ***
    2    -3073.6330696773734417    -1.13e-10  2.00e-07  4.08e-06  7.45e-07     1.9
                  *** Gradient check signals convergence ***

               *****************************************************
               *                     SUCCESS                       *
               *           SCF CONVERGED AFTER   2 CYCLES          *
               *****************************************************

Recomputing exchange energy using gridx3       ... done (    0.574 sec)
Old exchange energy                            :    -24.712180188 Eh
New exchange energy                            :    -24.712169946 Eh
Exchange energy change after final integration :      0.000010242 Eh
Total energy after final integration           :  -3073.633059435 Eh
             **** ENERGY FILE WAS UPDATED (neb.en.tmp) ****

----------------
TOTAL SCF ENERGY
----------------

Total Energy       :      -3073.63305943546084 Eh          -83637.80761 eV

Components:
Nuclear Repulsion  :        172.59643243899569 Eh            4696.58770 eV
Electronic Energy  :      -3246.22950211636908 Eh          -88334.39559 eV
One Electron Energy:      -4629.04520315610171 Eh         -125962.72380 eV
Two Electron Energy:       1382.81570103973286 Eh           37628.32821 eV

Virial components:
Potential Energy   :      -6142.96909497026172 Eh         -167158.68726 eV
Kinetic Energy     :       3069.33603553480043 Eh           83520.87965 eV
Virial Ratio       :          2.00139998483415

DFT components:
N(Alpha)           :       31.000000643716 electrons
N(Beta)            :       31.000000643716 electrons
N(Total)           :       62.000001287432 electrons
E(X)               :      -98.276027173525 Eh       
E(C)               :       -3.163312092465 Eh       
E(XC)              :     -101.439339265990 Eh       

---------------
SCF CONVERGENCE
---------------

  Last Energy change         ...    1.1278e-10  Tolerance :   1.0000e-08
  Last MAX-Density change    ...    4.0844e-06  Tolerance :   1.0000e-07
  Last RMS-Density change    ...    1.9957e-07  Tolerance :   5.0000e-09
  Last DIIS Error            ...    3.8002e-06  Tolerance :   5.0000e-07
  Last Orbital Gradient      ...    7.4530e-07  Tolerance :   1.0000e-05
  Last Orbital Rotation      ...    2.1475e-06  Tolerance :   1.0000e-05


----------------
ORBITAL ENERGIES
----------------

  NO   OCC          E(Eh)            E(eV) 
   0   2.0000    -482.552314    -13130.9160 
   1   2.0000    -101.209644     -2754.0544 
   2   2.0000     -62.235601     -1693.5168 
   3   2.0000     -56.066907     -1525.6581 
   4   2.0000     -56.065457     -1525.6186 
   5   2.0000     -56.065456     -1525.6186 
   6   2.0000     -10.080346      -274.3002 
   7   2.0000      -9.161183      -249.2885 
   8   2.0000      -8.452531      -230.0051 
   9   2.0000      -6.926987      -188.4929 
  10   2.0000      -6.922662      -188.3752 
  11   2.0000      -6.922661      -188.3752 
  12   2.0000      -6.282113      -170.9450 
  13   2.0000      -6.275074      -170.7534 
  14   2.0000      -6.275071      -170.7534 
  15   2.0000      -2.396829       -65.2210 
  16   2.0000      -2.394982       -65.1708 
  17   2.0000      -2.394979       -65.1707 
  18   2.0000      -2.389407       -65.0191 
  19   2.0000      -2.389402       -65.0189 
  20   2.0000      -0.557912       -15.1815 
  21   2.0000      -0.518708       -14.1148 
  22   2.0000      -0.481010       -13.0890 
  23   2.0000      -0.275611        -7.4998 
  24   2.0000      -0.275149        -7.4872 
  25   2.0000      -0.140442        -3.8216 
  26   2.0000      -0.077150        -2.0994 
  27   2.0000      -0.077141        -2.0991 
  28   2.0000      -0.051026        -1.3885 
  29   2.0000      -0.051009        -1.3880 
  30   2.0000      -0.049020        -1.3339 
  31   0.0000       0.136887         3.7249 
  32   0.0000       0.224850         6.1185 
  33   0.0000       0.290315         7.8999 
  34   0.0000       0.290479         7.9043 
  35   0.0000       0.528850        14.3907 
  36   0.0000       0.573410        15.6033 
  37   0.0000       0.573453        15.6044 
  38   0.0000       0.659314        17.9408 
  39   0.0000       0.708209        19.2713 
  40   0.0000       0.749752        20.4018 
  41   0.0000       0.749838        20.4041 
*Only the first 10 virtual orbitals were printed.
-------
TIMINGS
-------

Total SCF time: 0 days 0 hours 0 min 2 sec 

Total time                  ....       2.951 sec
Sum of individual times     ....       2.936 sec  ( 99.5%)

SCF preparation             ....       0.033 sec  (  1.1%)
Fock matrix formation       ....       2.898 sec  ( 98.2%)
  Startup                   ....       0.000 sec  (  0.0% of F)
  Split-RI-J                ....       0.033 sec  (  1.1% of F)
  Chain of spheres X        ....       2.741 sec  ( 94.6% of F)
  XC integration            ....       0.121 sec  (  4.2% of F)
    Basis function eval.    ....       0.049 sec  ( 40.2% of XC)
    Density eval.           ....       0.020 sec  ( 16.3% of XC)
    XC-Functional eval.     ....       0.014 sec  ( 11.5% of XC)
    XC-Potential eval.      ....       0.026 sec  ( 21.8% of XC)
Diagonalization             ....       0.000 sec  (  0.0%)
Density matrix formation    ....       0.000 sec  (  0.0%)
Total Energy calculation    ....       0.000 sec  (  0.0%)
Population analysis         ....       0.000 sec  (  0.0%)
Orbital Transformation      ....       0.001 sec  (  0.0%)
Orbital Orthonormalization  ....       0.000 sec  (  0.0%)
DIIS solution               ....       0.001 sec  (  0.0%)
SOSCF solution              ....       0.001 sec  (  0.0%)
Finished LeanSCF after   3.0 sec

Maximum memory used throughout the entire LEANSCF-calculation: 8.8 MB

------------------------------------------------------------------------------
                         ORCA PROPERTY INTEGRAL CALCULATIONS
------------------------------------------------------------------------------

GBWName                                   ... neb.gbw
Number of atoms                           ...      6
Number of basis functions                 ...     79
Max core memory                           ...   1024 MB

Dipole integrals                          ... YES
Quadrupole integrals                      ...  NO
Linear momentum integrals                 ...  NO
Angular momentum integrals                ...  NO
Higher moments length integrals           ...  NO
Higher moments velocity integrals         ...  NO
Kinetic energy integrals                  ...  NO
GIAO right hand sides                     ...  NO
GIAO dipole derivative integrals          ...  NO
SOC integrals                             ...  NO
EPR diamagnetic integrals (GIAO)          ...  NO
EPR gauge integrals                       ...  NO
Field gradient integrals                  ...  NO (   0 nuclei)
Spin-dipole/Fermi contact integrals       ...  NO (   0 nuclei)
Contact density integrals                 ...  NO (   0 nuclei)
Nucleus-orbit integrals                   ...  NO (   0 nuclei)
Geometric perturbations                   ...  NO (   6 nuclei)

Choice of electric origin   ... Center of mass
Position of electric origin ... ( -0.7161,  1.3910,  0.3904) 
Choice of magnetic origin   ... GIAO
Position of magnetic origin ... (  0.0000,  0.0000,  0.0000) 

Calculating integrals                     ... Electric Dipole (Length)     done (  0.0 sec)

Property integrals calculated in   0.0 sec

Maximum memory used throughout the entire PROPINT-calculation: 7.3 MB

-------------------------   --------------------
FINAL SINGLE POINT ENERGY     -3073.633059435461
-------------------------   --------------------

------------------------------------------------------------------------------
                         ORCA SCF GRADIENT CALCULATION
------------------------------------------------------------------------------

Nuc. rep. gradient        (SHARK) ... done (  0.0 sec)
HCore & Overlap gradient  (SHARK) ... done (  0.0 sec)
Split-RIJ-J gradient      (SHARK) ... done (  0.2 sec)
COSX-gradient                     ... done (  2.1 sec)
XC gradient                       ... done (  0.3 sec)

------------------
CARTESIAN GRADIENT
------------------

   1   C   :   -0.001634377    0.000139634   -0.000508290
   2   H   :    0.000631211    0.000307687    0.000166333
   3   Br  :   -0.000031506    0.000198694    0.000086851
   4   H   :    0.000221318    0.000284155   -0.000268666
   5   H   :    0.000249466    0.000089828    0.000759655
   6   Cl  :    0.000563889   -0.001019997   -0.000235882

Difference to translation invariance:
           :   -0.0000000000    0.0000000006   -0.0000000000

Difference to rotation invariance:
           :   -0.0000026932    0.0000154698   -0.0000917748

Norm of the Cartesian gradient     ...    0.0024043951
RMS gradient                       ...    0.0005667214
MAX gradient                       ...    0.0016343775

-------
TIMINGS
-------

Total SCF gradient time     ....        2.520 sec

Densities                   ....       0.000 sec  (  0.0%)
One electron gradient       ....       0.013 sec  (  0.5%)
RI-J Coulomb gradient       ....       0.156 sec  (  6.2%)
COSX gradient               ....       2.063 sec  ( 81.9%)
XC gradient                 ....       0.288 sec  ( 11.4%)

Maximum memory used throughout the entire SCFGRAD-calculation: 10.6 MB
------------------------------------------------------------------------------
                         ORCA GEOMETRY RELAXATION STEP
------------------------------------------------------------------------------

Reading the OPT-File                    .... done
Getting information on internals        .... done
Copying old internal coords+grads       .... done
Making the new internal coordinates     .... (2022 redundants) done
Validating the new internal coordinates .... (2022 redundants) done
Calculating the B-matrix                .... done
Calculating the G,G- and P matrices     .... done
Transforming gradient to internals      .... done
Projecting the internal gradient        .... done
Number of atoms                         ....   6
Number of internal coordinates          ....  17
Current Energy                          .... -3073.633059435 Eh
Current gradient norm                   ....     0.002404395 Eh/bohr
Maximum allowed component of the step   ....  0.300
Current trust radius                    ....  0.100
Evaluating the initial hessian          ....  (read) 
(Reading Exact Hessian)...  
InHessName: neb.appr.hess	The file <neb.appr.hess> is opened as a .hess file
done
done
Projecting the Hessian                  .... done
Diagonalizing the Hessian               .... done
Dimension of the hessian                ....  17
Lowest eigenvalues of the Hessian:
 -0.011529046  0.002206085  0.002223827  0.015214545  0.070584489
Hessian has   1 negative eigenvalues
Taking P-RFO step
Searching for lambda that maximizes along the lowest mode
TS mode is mode number   0 with eigenvalue  -0.01152905 and components:
   1.   -0.00307468
   2.   -0.58640638
   3.    0.00165758
   4.    0.00219234
   5.    0.08609056
   6.    0.08926284
   7.    0.56811711
   8.    0.09101834
   9.   -0.05742675
  10.    0.22373338
  11.   -0.05739301
  12.    0.22277609
  13.   -0.05973928
  14.   -0.22383955
  15.   -0.22346932
  16.   -0.22298146
  17.    0.22378545

Lambda that maximizes along the TS mode:       0.00001755
Searching for lambda that minimizes along all other modes
In cycle   1: lambdaN =  -0.00003001   step =   0.00003001
In cycle   2: lambdaN =  -0.00003001   step =   0.00000000
Lambda that minimizes along all other modes:  -0.00003001
The final length of the internal step   ....       0.0721
Converting the step to Cartesian space:
 Initial RMS(Int)=    0.0174829852
Transforming coordinates:
 Iter   0:  RMS(Cart)=    0.0152510132 RMS(Int)=    0.0174545494
done
Storing new coordinates                 .... done

                                .--------------------.
          ----------------------|Geometry convergence|-------------------------
          Item                value                   Tolerance       Converged
          ---------------------------------------------------------------------
          RMS gradient        0.0003600193            0.0001000000      NO
          MAX gradient        0.0008823005            0.0003000000      NO
          RMS step            0.0174829852            0.0020000000      NO
          MAX step            0.0453288575            0.0040000000      NO
          ........................................................
          Max(Bonds)      0.0240      Max(Angles)    1.61
          Max(Dihed)        0.00      Max(Improp)    0.00
          ---------------------------------------------------------------------

The optimization has not yet converged - more geometry cycles are needed


    ---------------------------------------------------------------------------
                         Redundant Internal Coordinates
                            (Angstroem and degrees)

        Definition                    Value    dE/dq     Step     New-Value  comp.(TS mode)
    ----------------------------------------------------------------------------
     1. B(H   1,C   0)                1.0826  0.000645 -0.0012    1.0815   
     2. B(Br  2,C   0)                2.4104  0.000206 -0.0208    2.3895          0.59
     3. B(H   3,C   0)                1.0811 -0.000508  0.0006    1.0818   
     4. B(H   4,C   0)                1.0807 -0.000882  0.0012    1.0819   
     5. B(Cl  5,H   1)                2.6293  0.000214  0.0084    2.6378   
     6. B(Cl  5,H   3)                2.6301  0.000185 -0.0034    2.6266   
     7. B(Cl  5,C   0)                2.4815  0.000600  0.0045    2.4861          0.57
     8. B(Cl  5,H   4)                2.6327  0.000245 -0.0240    2.6087   
     9. A(H   1,C   0,H   3)          119.40 -0.000056   -0.15    119.25   
    10. A(Br  2,C   0,H   3)           94.37  0.000158    0.59     94.96   
    11. A(H   1,C   0,H   4)          119.41 -0.000062   -0.15    119.26   
    12. A(Br  2,C   0,H   4)           94.39  0.000285    0.56     94.95   
    13. A(H   3,C   0,H   4)          119.48  0.000017   -0.17    119.31   
    14. A(H   1,C   0,Cl  5)           85.55 -0.000286    0.26     85.82   
    15. A(H   3,C   0,Cl  5)           85.62 -0.000099   -0.44     85.18   
    16. A(H   4,C   0,Cl  5)           85.78 -0.000001   -1.61     84.17   
    17. A(H   1,C   0,Br  2)           94.28 -0.000058    0.64     94.92   
    ----------------------------------------------------------------------------

Geometry step timings:
Preparation and reading OPT file:      0.000 s ( 3.099 %)
Internal coordinates            :      0.000 s ( 0.634 %)
B/P matrices and projection     :      0.000 s ( 3.204 %)
Hessian update/contruction      :      0.002 s (82.324 %)
Making the step                 :      0.000 s ( 3.169 %)
Converting the step to Cartesian:      0.000 s ( 0.669 %)
Storing new data                :      0.000 s ( 0.915 %)
Checking convergence            :      0.000 s ( 0.035 %)
Final printing                  :      0.000 s ( 5.810 %)
Total time                      :      0.003 s

Time for energy+gradient        :      5.894 s
Time for complete geometry iter :      5.924 s

         *************************************************************
         *                GEOMETRY OPTIMIZATION CYCLE   2            *
         *************************************************************
---------------------------------
CARTESIAN COORDINATES (ANGSTROEM)
---------------------------------
  C     -0.023979    0.054727    0.019939
  H      0.973825    0.407822    0.242008
  Br    -1.099425    2.113385    0.581448
  H     -0.553540   -0.531951    0.758555
  H     -0.366026    0.047643   -1.006431
  Cl     1.069145   -2.091626   -0.595518

----------------------------
CARTESIAN COORDINATES (A.U.)
----------------------------
  NO LB      ZA    FRAG     MASS         X           Y           Z
   0 C     6.0000    0    12.011   -0.045313    0.103420    0.037679
   1 H     1.0000    0     1.008    1.840263    0.770671    0.457328
   2 Br   35.0000    0    79.900   -2.077613    3.993718    1.098777
   3 H     1.0000    0     1.008   -1.046039   -1.005242    1.433462
   4 H     1.0000    0     1.008   -0.691690    0.090033   -1.901879
   5 Cl   17.0000    0    35.453    2.020391   -3.952600   -1.125366

--------------------------------
INTERNAL COORDINATES (ANGSTROEM)
--------------------------------
 C      0   0   0     0.000000000000     0.00000000     0.00000000
 H      1   0   0     1.081482062060     0.00000000     0.00000000
 Br     1   2   0     2.389549608175    94.91672851     0.00000000
 H      1   2   3     1.081749062661   119.24401007   261.51036426
 H      1   2   3     1.081888159331   119.25084894    98.47794936
 Cl     1   2   3     2.486068863279    85.81552850   179.40943103

---------------------------
INTERNAL COORDINATES (A.U.)
---------------------------
 C      0   0   0     0.000000000000     0.00000000     0.00000000
 H      1   0   0     2.043704916043     0.00000000     0.00000000
 Br     1   2   0     4.515594342870    94.91672851     0.00000000
 H      1   2   3     2.044209474055   119.24401007   261.51036426
 H      1   2   3     2.044472328668   119.25084894    98.47794936
 Cl     1   2   3     4.697989301666    85.81552850   179.40943103

------------------------------------------------------------------------------
                   ___                                                        
                  /   \      - P O W E R E D   B Y -                         
                 /     \                                                     
                 |  |  |   _    _      __       _____    __    __             
                 |  |  |  | |  | |    /  \     |  _  \  |  |  /  |          
                  \  \/   | |  | |   /    \    | | | |  |  | /  /          
                 / \  \   | |__| |  /  /\  \   | |_| |  |  |/  /          
                |  |  |   |  __  | /  /__\  \  |    /   |      \           
                |  |  |   | |  | | |   __   |  |    \   |  |\   \          
                \     /   | |  | | |  |  |  |  | |\  \  |  | \   \       
                 \___/    |_|  |_| |__|  |__|  |_| \__\ |__|  \__/        
                                                                              
                      - O R C A' S   B I G   F R I E N D -                    
                                      &                                       
                       - I N T E G R A L  F E E D E R -                       
                                                                              
 v1 FN, 2020, v2 2021, v3 2022-2024                                           
------------------------------------------------------------------------------


----------------------
SHARK INTEGRAL PACKAGE
----------------------

Number of atoms                             ...      6
Number of basis functions                   ...     79
Number of shells                            ...     35
Maximum angular momentum                    ...      2
Integral batch strategy                     ... SHARK/LIBINT Hybrid
RI-J (if used) integral strategy            ... SPLIT-RIJ (Revised 2003 algorithm where possible)
Printlevel                                  ...      1
Contraction scheme used                     ... SEGMENTED contraction
Prescreening option                         ... SCHWARTZ
   Thresh                                   ... 2.500e-11
   Tcut                                     ... 2.500e-12
   Tpresel                                  ... 2.500e-12 
Coulomb Range Separation                    ... NOT USED
Exchange Range Separation                   ... NOT USED
Multipole approximations                    ... NOT USED
Finite Nucleus Model                        ... NOT USED
CABS basis                                  ... NOT available
Auxiliary Coulomb fitting basis             ... AVAILABLE
   # of basis functions in Aux-J            ...    191
   # of shells in Aux-J                     ...     65
   Maximum angular momentum in Aux-J        ...      4
Auxiliary J/K fitting basis                 ... NOT available
Auxiliary Correlation fitting basis         ... NOT available
Auxiliary 'external' fitting basis          ... NOT available

Checking pre-screening integrals            ... done (  0.0 sec) Dimension = 35
Check shell pair data                       ... done (  0.0 sec)
Shell pair information
Shell pair cut-off parameter TPreSel        ...   2.5e-12
Total number of shell pairs                 ...       630
Shell pairs after pre-screening             ...       576
Total number of primitive shell pairs       ...      2935
Primitive shell pairs kept                  ...      2028
          la=0 lb=0:    156 shell pairs
          la=1 lb=0:    200 shell pairs
          la=1 lb=1:     73 shell pairs
          la=2 lb=0:     80 shell pairs
          la=2 lb=1:     54 shell pairs
          la=2 lb=2:     13 shell pairs

Calculating one electron integrals          ... done (  0.0 sec)
Calculating RI/J V-Matrix + Cholesky decomp.... done (  0.0 sec)
Calculating Nuclear repulsion               ... done (  0.0 sec) ENN=    173.267110769345 Eh

Diagonalization of the overlap matrix:
Smallest eigenvalue                        ... 1.430e-02
Time for diagonalization                   ...    0.001 sec
Threshold for overlap eigenvalues          ... 1.000e-07
Number of eigenvalues below threshold      ... 0
Time for construction of square roots      ...    0.000 sec
Total time needed                          ...    0.001 sec

-------------------
DFT GRID GENERATION
-------------------

General Integration Accuracy     IntAcc      ... 4.388
Radial Grid Type                 RadialGrid  ... OptM3 with GC (2021)
Angular Grid (max. ang.)         AngularGrid ... 4 (Lebedev-302)
Angular grid pruning method      GridPruning ... 4 (adaptive)
Weight generation scheme         WeightScheme... mBecke (2022)
Basis function cutoff            BFCut       ... 1.0000e-11
Integration weight cutoff        WCut        ... 1.0000e-14
Partially contracted basis set               ... off
Rotationally invariant grid construction     ... off
Angular grids for H and He will be reduced by one unit
Core-polarized basis detected: some atoms will have their core
                               angular grid increased.

Total number of grid points                  ...    34620
Total number of batches                      ...      544
Average number of points per batch           ...       63
Average number of grid points per atom       ...     5770

--------------------
COSX GRID GENERATION
--------------------

GRIDX 1
-------
General Integration Accuracy     IntAcc      ... 3.816
Radial Grid Type                 RadialGrid  ... OptM3 with GC (2021)
Angular Grid (max. ang.)         AngularGrid ... 1 (Lebedev-50)
Angular grid pruning method      GridPruning ... 4 (adaptive)
Weight generation scheme         WeightScheme... mBecke (2022)
Basis function cutoff            BFCut       ... 1.0000e-11
Integration weight cutoff        WCut        ... 1.0000e-14
Partially contracted basis set               ... on
Rotationally invariant grid construction     ... off
Angular grids for H and He will be reduced by one unit
Core-polarized basis detected: some atoms will have their core
                               angular grid increased.

Total number of grid points                  ...    10252
Total number of batches                      ...       83
Average number of points per batch           ...      123
Average number of grid points per atom       ...     1709
UseSFitting                                  ... on

GRIDX 2
-------
General Integration Accuracy     IntAcc      ... 4.020
Radial Grid Type                 RadialGrid  ... OptM3 with GC (2021)
Angular Grid (max. ang.)         AngularGrid ... 2 (Lebedev-110)
Angular grid pruning method      GridPruning ... 4 (adaptive)
Weight generation scheme         WeightScheme... mBecke (2022)
Basis function cutoff            BFCut       ... 1.0000e-11
Integration weight cutoff        WCut        ... 1.0000e-14
Partially contracted basis set               ... on
Rotationally invariant grid construction     ... off
Angular grids for H and He will be reduced by one unit
Core-polarized basis detected: some atoms will have their core
                               angular grid increased.

Total number of grid points                  ...    12437
Total number of batches                      ...      101
Average number of points per batch           ...      123
Average number of grid points per atom       ...     2073
UseSFitting                                  ... on

GRIDX 3
-------
General Integration Accuracy     IntAcc      ... 4.338
Radial Grid Type                 RadialGrid  ... OptM3 with GC (2021)
Angular Grid (max. ang.)         AngularGrid ... 3 (Lebedev-194)
Angular grid pruning method      GridPruning ... 4 (adaptive)
Weight generation scheme         WeightScheme... mBecke (2022)
Basis function cutoff            BFCut       ... 1.0000e-11
Integration weight cutoff        WCut        ... 1.0000e-14
Partially contracted basis set               ... on
Rotationally invariant grid construction     ... off
Angular grids for H and He will be reduced by one unit
Core-polarized basis detected: some atoms will have their core
                               angular grid increased.

Total number of grid points                  ...    20575
Total number of batches                      ...      164
Average number of points per batch           ...      125
Average number of grid points per atom       ...     3429
UseSFitting                                  ... on
Initializing property integral containers    ... done (  0.0 sec)

SHARK setup successfully completed in   0.3 seconds

Maximum memory used throughout the entire STARTUP-calculation: 16.7 MB
Occupation numbers will be reassigned to an Aufbau configuration
             **** ENERGY FILE WAS UPDATED (neb.en.tmp) ****
Finished Guess after   0.0 sec
Maximum memory used throughout the entire GUESS-calculation: 7.1 MB
----------------------------------------D-I-I-S--------------------------------------------
Iteration    Energy (Eh)           Delta-E    RMSDP     MaxDP     DIISErr   Damp  Time(sec)
-------------------------------------------------------------------------------------------
               ***  Starting incremental Fock matrix formation  ***
                              *** Initializing SOSCF ***
---------------------------------------S-O-S-C-F--------------------------------------
Iteration    Energy (Eh)           Delta-E    RMSDP     MaxDP     MaxGrad    Time(sec)
--------------------------------------------------------------------------------------
    1    -3073.6329656722919026     0.00e+00  3.25e-04  4.48e-03  7.48e-04     0.5
               *** Restarting incremental Fock matrix formation ***
    2    -3073.6330424922580278    -7.68e-05  2.47e-04  3.63e-03  5.12e-04     0.4
    3    -3073.6330570327563692    -1.45e-05  8.72e-05  1.15e-03  1.95e-04     0.4
    4    -3073.6330565026974000     5.30e-07  4.30e-05  5.68e-04  3.48e-04     0.4
    5    -3073.6330578378488099    -1.34e-06  8.72e-06  1.17e-04  3.33e-05     0.4
    6    -3073.6330578370348121     8.14e-10  4.93e-06  8.74e-05  3.36e-05     0.3
                 **** Energy Check signals convergence ****

               *****************************************************
               *                     SUCCESS                       *
               *           SCF CONVERGED AFTER   6 CYCLES          *
               *****************************************************

Recomputing exchange energy using gridx3       ... done (    0.560 sec)
Old exchange energy                            :    -24.712723830 Eh
New exchange energy                            :    -24.712714521 Eh
Exchange energy change after final integration :      0.000009309 Eh
Total energy after final integration           :  -3073.633048528 Eh
             **** ENERGY FILE WAS UPDATED (neb.en.tmp) ****

----------------
TOTAL SCF ENERGY
----------------

Total Energy       :      -3073.63304852812189 Eh          -83637.80731 eV

Components:
Nuclear Repulsion  :        173.26711076934546 Eh            4714.83778 eV
Electronic Energy  :      -3246.90016860638025 Eh          -88352.64535 eV
One Electron Energy:      -4630.36277227735536 Eh         -125998.57668 eV
Two Electron Energy:       1383.46260367097489 Eh           37645.93133 eV

Virial components:
Potential Energy   :      -6142.97940942084188 Eh         -167158.96793 eV
Kinetic Energy     :       3069.34636089271999 Eh           83521.16061 eV
Virial Ratio       :          2.00139661254592

DFT components:
N(Alpha)           :       31.000000803526 electrons
N(Beta)            :       31.000000803526 electrons
N(Total)           :       62.000001607051 electrons
E(X)               :      -98.277791966961 Eh       
E(C)               :       -3.163587833935 Eh       
E(XC)              :     -101.441379800896 Eh       

---------------
SCF CONVERGENCE
---------------

  Last Energy change         ...   -8.1400e-10  Tolerance :   1.0000e-08
  Last MAX-Density change    ...    8.7394e-05  Tolerance :   1.0000e-07
  Last RMS-Density change    ...    4.9324e-06  Tolerance :   5.0000e-09
  Last DIIS Error            ...    2.9718e-03  Tolerance :   5.0000e-07
  Last Orbital Gradient      ...    3.3631e-05  Tolerance :   1.0000e-05
  Last Orbital Rotation      ...    6.7073e-05  Tolerance :   1.0000e-05


Total SCF time: 0 days 0 hours 0 min 2 sec 
Finished LeanSCF after   2.9 sec

Maximum memory used throughout the entire LEANSCF-calculation: 8.9 MB

------------------------------------------------------------------------------
                         ORCA PROPERTY INTEGRAL CALCULATIONS
------------------------------------------------------------------------------

GBWName                                   ... neb.gbw
Number of atoms                           ...      6
Number of basis functions                 ...     79
Max core memory                           ...   1024 MB

Dipole integrals                          ... YES
Quadrupole integrals                      ...  NO
Linear momentum integrals                 ...  NO
Angular momentum integrals                ...  NO
Higher moments length integrals           ...  NO
Higher moments velocity integrals         ...  NO
Kinetic energy integrals                  ...  NO
GIAO right hand sides                     ...  NO
GIAO dipole derivative integrals          ...  NO
SOC integrals                             ...  NO
EPR diamagnetic integrals (GIAO)          ...  NO
EPR gauge integrals                       ...  NO
Field gradient integrals                  ...  NO (   0 nuclei)
Spin-dipole/Fermi contact integrals       ...  NO (   0 nuclei)
[...]
Magnitude (a.u.)       :      1.933266615
Magnitude (Debye)      :      4.913973217



--------------------
Rotational spectrum 
--------------------
 
Rotational constants in cm-1:             4.799568             0.028227             0.028227 
Rotational constants in MHz :        143887.424404           846.216801           846.216362 

Dipole components along the rotational axes: 
x,y,z [a.u.] :     1.933267     0.000126     0.000168 
x,y,z [Debye]:     4.913973     0.000320     0.000426 

 

Dipole moment calculation done in   0.0 sec 

-----------
SCF HESSIAN
-----------

Occupied/Occupied contributions to the Hessian:
   => Occupied/Occupied contributions              ... done (  0.0 sec)
Perturbed density contributions to the Hessian:
   => Perturbed density contributions              ... done (  0.0 sec)
Explicit contributions to the Hessian:
   => Nuclear repulsion Hessian                    ... done (  0.0 sec)
   => HCore and overlap Hessian                    ... done (  0.2 sec)
   => RI-J Hessian                                 ... done (  0.4 sec)
   => COSX Hessian                                 ... done ( 24.7 sec)
   => XC-Hessian                                   ... done (  2.0 sec)
   => Explicit contributions done
Dipole derivatives                                 ... done (  0.0 sec)
Mass weighting the Hessian           ... done
Calculating normal modes             ... done
Scaling frequencies                  ... done

-----------------------
VIBRATIONAL FREQUENCIES
-----------------------

Scaling factor for frequencies =  1.000000000  (already applied!)

     0:       0.00 cm**-1
     1:       0.00 cm**-1
     2:       0.00 cm**-1
     3:       0.00 cm**-1
     4:       0.00 cm**-1
     5:       0.00 cm**-1
     6:    -294.92 cm**-1  ***imaginary mode***
     7:     168.26 cm**-1
     8:     168.33 cm**-1
     9:     172.08 cm**-1
    10:     821.02 cm**-1
    11:     821.10 cm**-1
    12:     919.58 cm**-1
    13:    1362.03 cm**-1
    14:    1362.09 cm**-1
    15:    3184.93 cm**-1
    16:    3398.41 cm**-1
    17:    3398.60 cm**-1


------------
NORMAL MODES
------------

These modes are the Cartesian displacements weighted by the diagonal matrix
M(i,i)=1/sqrt(m[i]) where m[i] is the mass of the displaced atom
Thus, these vectors are normalized but *not* orthogonal

                  0          1          2          3          4          5    
      0       0.000000   0.000000   0.000000   0.000000   0.000000   0.000000
      1       0.000000   0.000000   0.000000   0.000000   0.000000   0.000000
      2       0.000000   0.000000   0.000000   0.000000   0.000000   0.000000
      3       0.000000   0.000000   0.000000   0.000000   0.000000   0.000000
      4       0.000000   0.000000   0.000000   0.000000   0.000000   0.000000
      5       0.000000   0.000000   0.000000   0.000000   0.000000   0.000000
      6       0.000000   0.000000   0.000000   0.000000   0.000000   0.000000
      7       0.000000   0.000000   0.000000   0.000000   0.000000   0.000000
      8       0.000000   0.000000   0.000000   0.000000   0.000000   0.000000
      9       0.000000   0.000000   0.000000   0.000000   0.000000   0.000000
     10       0.000000   0.000000   0.000000   0.000000   0.000000   0.000000
     11       0.000000   0.000000   0.000000   0.000000   0.000000   0.000000
     12       0.000000   0.000000   0.000000   0.000000   0.000000   0.000000
     13       0.000000   0.000000   0.000000   0.000000   0.000000   0.000000
     14       0.000000   0.000000   0.000000   0.000000   0.000000   0.000000
     15       0.000000   0.000000   0.000000   0.000000   0.000000   0.000000
     16       0.000000   0.000000   0.000000   0.000000   0.000000   0.000000
     17       0.000000   0.000000   0.000000   0.000000   0.000000   0.000000
                  6          7          8          9         10         11    
      0       0.435029  -0.430531   0.058067   0.059814  -0.020252  -0.013872
      1      -0.842888  -0.188310   0.157094  -0.134904  -0.013789  -0.000540
      2      -0.235513  -0.119928  -0.455129  -0.035663   0.012218  -0.023605
      3       0.072249  -0.413047   0.058927   0.071066  -0.243566  -0.217121
      4       0.001943  -0.254532   0.162199  -0.141224   0.554360   0.455287
      5       0.007787  -0.141045  -0.465893  -0.036531   0.121207   0.172820
      6      -0.036669   0.041244  -0.005637  -0.181270   0.003403   0.002338
      7       0.071087   0.017301  -0.014711   0.352657   0.002343   0.000087
      8       0.019863   0.011235   0.043334   0.098194  -0.002053   0.003976
      9      -0.022835  -0.455881   0.089361   0.059208   0.375633  -0.089419
     10      -0.057299  -0.164842   0.109596  -0.145639  -0.641240   0.235086
     11       0.039845  -0.112880  -0.482555  -0.032194  -0.199719   0.108600
     12      -0.011429  -0.457683   0.030991   0.061049  -0.025701   0.378692
     13      -0.020633  -0.161676   0.211763  -0.142460   0.157572  -0.686665
     14      -0.070245  -0.115946  -0.454532  -0.044939   0.014347  -0.157910
     15      -0.065822   0.090625  -0.012066   0.382823  -0.003832  -0.002620
     16       0.127511   0.041327  -0.033815  -0.736870  -0.002618  -0.000119
     17       0.035668   0.025827   0.096419  -0.205985   0.002313  -0.004475
                 12         13         14         15         16         17    
      0       0.008064  -0.022727   0.078096  -0.004649  -0.076226   0.050860
      1      -0.015635   0.012539   0.044257   0.008942  -0.051805   0.001519
      2      -0.004320  -0.087068  -0.014003   0.002482   0.044543   0.088816
      3      -0.218180  -0.090344   0.010865   0.531150   0.573606  -0.483069
      4       0.513841  -0.271395  -0.005755   0.192616   0.199761  -0.171926
      5       0.148121   0.687711   0.325992   0.119470   0.133208  -0.099366
      6       0.004662  -0.000002   0.000009   0.000058   0.000107  -0.000072
      7      -0.009021   0.000001   0.000004  -0.000112   0.000073  -0.000002
      8      -0.002520  -0.000010  -0.000001  -0.000031  -0.000063  -0.000125
      9      -0.278837   0.509192  -0.290260  -0.286671   0.372809   0.143147
     10       0.475181   0.105412  -0.109523  -0.307019   0.411658   0.151494
     11       0.168572   0.377814  -0.389554   0.396064  -0.523739  -0.182983
     12      -0.272088  -0.149655  -0.646024  -0.188306  -0.053624  -0.255744
     13       0.499956   0.017459  -0.409031   0.006314  -0.004666   0.002631
     14       0.098291  -0.033885   0.229504  -0.545519  -0.131149  -0.757891
     15       0.008628   0.000051  -0.000167  -0.000153   0.000198  -0.000133
     16      -0.016708  -0.000028  -0.000096   0.000296   0.000135  -0.000004
     17      -0.004656   0.000188   0.000029   0.000082  -0.000116  -0.000231


-----------
IR SPECTRUM
-----------

 Mode   freq       eps      Int      T**2         TX        TY        TZ
       cm**-1   L/(mol*cm) km/mol    a.u.
----------------------------------------------------------------------------
  7:    168.26   0.001514    7.65  0.002808  (-0.047073 -0.020519 -0.013085)
  8:    168.33   0.001513    7.65  0.002805  ( 0.006231  0.017379 -0.049641)
  9:    172.08   0.000589    2.97  0.001067  (-0.014823  0.028025  0.007883)
 10:    821.02   0.000187    0.94  0.000071  ( 0.006171  0.004370 -0.003711)
 11:    821.10   0.000186    0.94  0.000071  ( 0.004259  0.000207  0.007254)
 12:    919.58   0.012980   65.60  0.004405  ( 0.029588 -0.057217 -0.015992)
 13:   1362.03   0.000731    3.69  0.000168  ( 0.003231 -0.001784  0.012405)
 14:   1362.09   0.000732    3.70  0.000168  (-0.011154 -0.006275  0.002010)
 15:   3184.93   0.000000    0.00  0.000000  (-0.000046  0.000089  0.000066)
 16:   3398.41   0.000487    2.46  0.000045  ( 0.004976  0.003411 -0.002877)
 17:   3398.60   0.000487    2.46  0.000045  (-0.003309 -0.000102 -0.005813)

* The epsilon (eps) is given for a Dirac delta lineshape.
** The dipole moment derivative (T) already includes vibrational overlap.

The first frequency considered to be a vibration is 7
The total number of vibrations considered is 11


--------------------------
THERMOCHEMISTRY AT 298.15K
--------------------------

Temperature         ...   298.15 K
Pressure            ...     1.00 atm
Total Mass          ...   130.39 AMU
Quasi RRHO          ...     True
Cut-Off Frequency   ...     1.00 cm^-1

Throughout the following assumptions are being made:
  (1) The electronic state is orbitally nondegenerate
  (2) There are no thermally accessible electronically excited states
  (3) Hindered rotations indicated by low frequency modes are not
      treated as such but are treated as vibrations and this may
      cause some error
  (4) All equations used are the standard statistical mechanics
      equations for an ideal gas
  (5) All vibrations are strictly harmonic

freq.     168.26  E(vib)   ...       0.38 
freq.     168.33  E(vib)   ...       0.38 
freq.     172.08  E(vib)   ...       0.38 
freq.     821.02  E(vib)   ...       0.05 
freq.     821.10  E(vib)   ...       0.05 
freq.     919.58  E(vib)   ...       0.03 
freq.    1362.03  E(vib)   ...       0.01 
freq.    1362.09  E(vib)   ...       0.01 
freq.    3184.93  E(vib)   ...       0.00 
freq.    3398.41  E(vib)   ...       0.00 
freq.    3398.60  E(vib)   ...       0.00 

------------
INNER ENERGY
------------

The inner energy is: U= E(el) + E(ZPE) + E(vib) + E(rot) + E(trans)
    E(el)   - is the total energy from the electronic structure calculation
              = E(kin-el) + E(nuc-el) + E(el-el) + E(nuc-nuc)
    E(ZPE)  - the the zero temperature vibrational energy from the frequency calculation
    E(vib)  - the the finite temperature correction to E(ZPE) due to population
              of excited vibrational states
    E(rot)  - is the rotational thermal energy
    E(trans)- is the translational thermal energy

Summary of contributions to the inner energy U:
Electronic energy                ...  -3073.63306281 Eh
Zero point energy                ...      0.03594136 Eh      22.55 kcal/mol
Thermal vibrational correction   ...      0.00204272 Eh       1.28 kcal/mol
Thermal rotational correction    ...      0.00141627 Eh       0.89 kcal/mol
Thermal translational correction ...      0.00141627 Eh       0.89 kcal/mol
-----------------------------------------------------------------------
Total thermal energy                  -3073.59224619 Eh


Summary of corrections to the electronic energy:
(perhaps to be used in another calculation)
Total thermal correction                  0.00487526 Eh       3.06 kcal/mol
Non-thermal (ZPE) correction              0.03594136 Eh      22.55 kcal/mol
-----------------------------------------------------------------------
Total correction                          0.04081662 Eh      25.61 kcal/mol


--------
ENTHALPY
--------

The enthalpy is H = U + kB*T
                kB is Boltzmann's constant
Total thermal energy              ...  -3073.59224619 Eh 
Thermal Enthalpy correction       ...      0.00094421 Eh       0.59 kcal/mol
-----------------------------------------------------------------------
Total Enthalpy                    ...  -3073.59130198 Eh


Note: Only C1 symmetry has been detected, increase convergence thresholds 
      if your molecule has a higher symmetry. Symmetry factor of 1.0 is   
      used for the rotational entropy correction. 
 

Note: Rotational entropy computed according to Herzberg 
Infrared and Raman Spectra, Chapter V,1, Van Nostrand Reinhold, 1945 
Point Group:  C1, Symmetry Number:   1  
Rotational constants in cm-1:     4.799568     0.028227     0.028227 

Vibrational entropy computed according to the QRRHO of S. Grimme
Chem.Eur.J. 2012 18 9955 using a reference frequency of 100.0 cm-1


-------
ENTROPY
-------

The entropy contributions are T*S = T*(S(el)+S(vib)+S(rot)+S(trans))
     S(el)   - electronic entropy
     S(vib)  - vibrational entropy
     S(rot)  - rotational entropy
     S(trans)- translational entropy
The entropies will be listed as multiplied by the temperature to get
units of energy

Electronic entropy                ...      0.00000000 Eh      0.00 kcal/mol
Vibrational entropy               ...      0.00372464 Eh      2.34 kcal/mol
Rotational entropy                ...      0.01213868 Eh      7.62 kcal/mol
Translational entropy             ...      0.01924704 Eh     12.08 kcal/mol
-----------------------------------------------------------------------
Final entropy term                ...      0.03511035 Eh     22.03 kcal/mol

In case the symmetry of your molecule has not been determined correctly
or in case you have a reason to use a different symmetry number we print 
out the resulting rotational entropy values for sn=1,12:

 non-linear molecules -----------------------------------
|  sn= 1 | S(rot)=       0.01213868 Eh      7.62 kcal/mol|
|  sn= 2 | S(rot)=       0.01148422 Eh      7.21 kcal/mol|
|  sn= 3 | S(rot)=       0.01110139 Eh      6.97 kcal/mol|
|  sn= 4 | S(rot)=       0.01082976 Eh      6.80 kcal/mol|
|  sn= 5 | S(rot)=       0.01061908 Eh      6.66 kcal/mol|
|  sn= 6 | S(rot)=       0.01044693 Eh      6.56 kcal/mol|
|  sn= 7 | S(rot)=       0.01030138 Eh      6.46 kcal/mol|
|  sn= 8 | S(rot)=       0.01017531 Eh      6.39 kcal/mol|
|  sn= 9 | S(rot)=       0.01006410 Eh      6.32 kcal/mol|
|  sn=10 | S(rot)=       0.00996462 Eh      6.25 kcal/mol|
|  sn=11 | S(rot)=       0.00987463 Eh      6.20 kcal/mol|
|  sn=12 | S(rot)=       0.00979247 Eh      6.14 kcal/mol|
 linear molecules ---------------------------------------
|  Dinfh | S(rot)=       0.00869416 Eh      5.46 kcal/mol|
|  Cinfv | S(rot)=       0.00934861 Eh      5.87 kcal/mol|
 --------------------------------------------------------


-------------------
GIBBS FREE ENERGY
-------------------

The Gibbs free energy is G = H - T*S

Total enthalpy                    ...  -3073.59130198 Eh 
Total entropy correction          ...     -0.03511035 Eh    -22.03 kcal/mol
-----------------------------------------------------------------------
Final Gibbs free energy         ...  -3073.62641233 Eh

For completeness - the Gibbs free energy minus the electronic energy
G-E(el)                           ...      0.00665047 Eh      4.17 kcal/mol


Maximum memory used throughout the entire PROP-calculation: 31.2 MB

--------------------------------
SUGGESTED CITATIONS FOR THIS RUN
--------------------------------

Below you find a list of papers that are relevant to this ORCA run
We neither can nor want to force you to cite these papers, but we appreciate if you do
You receive ORCA, which is the product of decades of hard work by many enthusiastic individuals, for free
The only thing we kindly ask in return is that you cite our papers,
We deeply appreciate it, if you show your appreciation for ORCA by not just citing the generic ORCA reference.

Please note that relegating all ORCA citations to the supporting information does *not* help us.
SI sections are not indexed - citations you put there will not count into any citation statistics
But we need these citations in order to attract the funding resources that allow us to do what we are doing

Therefore, if you are a happy ORCA user, please consider citing a few of the papers listed below in the main body of your paper

In addition to the list printed below, the program has created the file neb.bibtex that contains the list in bibtex format
You can import this file easily into all common literature databanks and citation aid programs


List of essential papers. We consider these as the minimum necessary citations

  1. Neese,F.
     Software update: the ORCA program system, version 5.0
     WIRES Comput. Molec. Sci., 2022 12(1)e1606
     doi.org/10.1002/wcms.1606

List of papers to cite with high priority. The work reported in these papers was absolutely
necessary for this run to complete.
Our perspective: the developers of density functionals and basis sets usually get cited in chemistry papers
Good! But without the algorithms to do something with them, the functionals or basis sets would not do anything.
Hence, in our opinion, the algorithm design and method developments papers are equally worthy of getting cited

  1. Neese,F.
     An improvement of the resolution of the identity approximation for the formation of the Coulomb matrix
     J. Comp. Chem., 2003 24(14)1740-1747
     doi.org/10.1002/jcc.10318
  2. Neese,F.; Wennmohs,F.; Hansen,A.; Becker,U.
     Efficient, approximate and parallel Hartree-Fock and hybrid DFT calculations. A 'chain-of-spheres' algorithm for the Hartree-Fock exchange
     Chem. Phys., 2009 356(1-3)98-109
     doi.org/10.1016/j.chemphys.2008.10.036
  3. Bykov,D.; Petrenko,T.; Izsak,R.; Kossmann,S.; Becker,U.; Valeev,E.; Neese,F.
     Efficient implementation of the analytic second derivatives of Hartree-Fock and hybrid DFT energies: a detailed analysis of different approximations
     Molec. Phys., 2015 113 1961-1977
     doi.org/10.1080/00268976.2015.1025114
  4. Asgeirsson,V.; Orri Birgisson,B.; Björnsson,R.; Becker,U.; Neese,F.; Riplinger,C.; Jonsson,H.
     Nudged Elastic Band Method for Molecular Reactions Using Energy-Weighted Springs Combined with Eigenvector Following
     J. Chem. Theory Comput., 2021 17 4929-4945
     doi.org/10.1021/acs.jctc.1c00462
  5. Helmich-Paris,B.; de Souza,B.; Neese,F.; Izsák,R.
     An improved chain of spheres for exchange algorithm
     J. Chem. Phys., 2021 155 104109
     doi.org/doi: 10.1063/5.0058766.
  6. Neese,F.
     The SHARK Integral Generation and Digestion System
     J. Comp. Chem., 2022  1-16
     doi.org/10.1002/jcc.26942

List of suggested additional citations. These are papers that are important in the 'surrounding' of 
of this run, or papers that preceded the highly important papers. If you like your results we are grateful for a citation.

  1. Izsak,R.; Neese,F.
     An overlap fitted chain of spheres exchange method
     J. Chem. Phys., 2011 135 144105
     doi.org/10.1063/1.3646921
  2. Izsak,R.; Hansen,A.; Neese,F.
     The resolution of identity and chain of spheres approximations for the LPNO-CCSD singles Fock term
     Molec. Phys., 2012 110 2413-2417
     doi.org/10.1080/00268976.2012.687466
  3. Neese,F.
     The ORCA program system
     WIRES Comput. Molec. Sci., 2012 2(1)73-78
     doi.org/10.1002/wcms.81
  4. Izsak,R.; Neese,F.; Klopper,W.
     Robust fitting techniques in the chain of spheres approximation to the Fock exchange: The role of the complementary space
     J. Chem. Phys., 2013 139 
     doi.org/10.1063/1.4819264
  5. Neese,F.
     Software update: the ORCA program system, version 4.0
     WIRES Comput. Molec. Sci., 2018 8(1)1-6
     doi.org/10.1002/wcms.1327
  6. Neese,F.; Wennmohs,F.; Becker,U.; Riplinger,C.
     The ORCA quantum chemistry program package
     J. Chem. Phys., 2020 152 Art. No. L224108
     doi.org/10.1063/5.0004608

List of optional additional citations

  1. Neese,F.
     Approximate second-order SCF convergence for spin unrestricted wavefunctions
     Chem. Phys. Lett., 2000 325(1-3)93-98
     doi.org/10.1016/s0009-2614(00)00662-x

Timings for individual modules:

Sum of individual times          ...      594.256 sec (=   9.904 min)
Startup calculation              ...        3.051 sec (=   0.051 min)   0.5 %
SCF iterations                   ...       40.628 sec (=   0.677 min)   6.8 %
Property integrals               ...       26.206 sec (=   0.437 min)   4.4 %
SCF Response                     ...        4.567 sec (=   0.076 min)   0.8 %
Property calculations            ...       27.346 sec (=   0.456 min)   4.6 %
SCF Gradient evaluation          ...       24.856 sec (=   0.414 min)   4.2 %
Geometry relaxation              ...        0.012 sec (=   0.000 min)   0.0 %
NEB Iterations                   ...      467.590 sec (=   7.793 min)  78.7 %
                             ****ORCA TERMINATED NORMALLY****
TOTAL RUN TIME: 0 days 0 hours 9 minutes 2 seconds 255 msec
