
                                 *****************
                                 * O   R   C   A *
                                 *****************

                                            #,                                       
                                            ###                                      
                                            ####                                     
                                            #####                                    
                                            ######                                   
                                           ########,                                 
                                     ,,################,,,,,                         
                               ,,#################################,,                 
                          ,,##########################################,,             
                       ,#########################################, ''#####,          
                    ,#############################################,,   '####,        
                  ,##################################################,,,,####,       
                ,###########''''           ''''###############################       
              ,#####''   ,,,,##########,,,,          '''####'''          '####       
            ,##' ,,,,###########################,,,                        '##       
           ' ,,###''''                  '''############,,,                           
         ,,##''                                '''############,,,,        ,,,,,,###''
      ,#''                                            '''#######################'''  
     '                                                          ''''####''''         
             ,#######,   #######,   ,#######,      ##                                
            ,#'     '#,  ##    ##  ,#'     '#,    #''#        ,####,   ,####,        
            ##       ##  ##   ,#'  ##            #'  '#       #'       #'  '#        
            ##       ##  #######   ##           ,######,      #####,   #    #        
            '#,     ,#'  ##    ##  '#,     ,#' ,#      #,     #,   #   #,  ,#        
             '#######'   ##     ##  '#######'  #'      '#     '####' # '####'        



                #########################################################
                #                        -***-                          #
                #          Department of theory and spectroscopy        #
                #                                                       #
                #                      Frank Neese                      #
                #                                                       #
                #     Directorship, Architecture, Infrastructure        #
                #                    SHARK, DRIVERS                     #
                #        Core code/Algorithms in most modules           #
                #                                                       #
                #        Max Planck Institute fuer Kohlenforschung      #
                #                Kaiser Wilhelm Platz 1                 #
                #                 D-45470 Muelheim/Ruhr                 #
                #                      Germany                          #
                #                                                       #
                #                  All rights reserved                  #
                #                        -***-                          #
                #########################################################


                         Program Version 6.0.1  -  RELEASE   -


 With contributions from (in alphabetic order):
[Max-Planck-Institut fuer Kohlenforschung]                               
  Daniel Aravena         : Magnetic Suceptibility                        
  Michael Atanasov       : Ab Initio Ligand Field Theory (pilot matlab implementation)
  Alexander A. Auer      : GIAO ZORA, VPT2 properties, NMR spectrum      
  Ute Becker             : All parallelization in ORCA, NUMFREQ, NUMCALC 
  Giovanni Bistoni       : ED, misc. LED, open-shell LED, HFLD           
  Martin Brehm           : Molecular dynamics                            
  Dmytro Bykov           : pre 5.0 version of the SCF Hessian            
  Marcos Casanova-Páez   : Triplet and SCS-CIS(D). UHF-(DLPNO)-IP/EA/STEOM-CCSD. UHF-CVS-IP/STEOM-CCSD   
  Vijay G. Chilkuri      : MRCI spin determinant printing, contributions to CSF-ICE 
  Pauline Colinet        : FMM embedding                                 
  Dipayan Datta          : RHF DLPNO-CCSD density                        
  Achintya Kumar Dutta   : EOM-CC, STEOM-CC                              
  Nicolas Foglia         : Exact transition moments, OPA infrastructure, MCD improvements    
  Dmitry Ganyushin       : Spin-Orbit,Spin-Spin,Magnetic field MRCI      
  Miquel Garcia-Rates    : C-PCM and meta-GGA Hessian, CCSD/C-PCM, Gaussian charge scheme 
  Tiago L. C. Gouveia    : GS-ROHF, GS-ROCIS                             
  Yang Guo               : DLPNO-NEVPT2, F12-NEVPT2, CIM, IAO-localization        
  Andreas Hansen         : Spin unrestricted coupled pair/coupled cluster methods 
  Ingolf Harden          : AUTO-CI MPn and infrastructure                
  Benjamin Helmich-Paris : MC-RPA, TRAH-(SCF,CASSCF), AVAS, COSX integrals, SCF dyn. polar. 
  Lee Huntington         : MR-EOM, pCC                                   
  Robert Izsak           : Overlap fitted RIJCOSX, COSX-SCS-MP3, EOM     
  Riya Kayal             : Wick's Theorem for AUTO-CI, AUTO-CI UHF-CCSDT 
  Emily Kempfer          : AUTO-CI, RHF CISDT and CCSDT                  
  Christian Kollmar      : KDIIS, OOCD, Brueckner-CCSD(T), CCSD density, CASPT2, CASPT2-K, improved NEVPT2 
  Axel Koslowski         : Symmetry handling                             
  Simone Kossmann        : meta-GGA functionals, TD-DFT gradient, OOMP2, (MP2 Hessian; deprecated post 5.0) 
  Lucas Lang             : DCDCAS                                        
  Marvin Lechner         : AUTO-CI (C++ implementation), FIC-MRCC        
  Spencer Leger          : CASSCF response                               
  Dagmar Lenk            : GEPOL surface, SMD, ORCA-2-JSON               
  Dimitrios Liakos       : Extrapolation schemes; Compound Job, initial MDCI parallelization 
  Dimitrios Manganas     : Further ROCIS development; embedding schemes. LFT, Crystal Embedding 
  Dimitrios Pantazis     : SARC Basis sets                               
  Anastasios Papadopoulos: AUTO-CI, single reference methods and gradients 
  Taras Petrenko         : pre 6.0 DFT Hessian and TD-DFT gradient, (ASA, deprecated), ECA, 1-Electron XAS/XES, NRVS 
  Peter Pinski           : DLPNO-MP2, DLPNO-MP2 Gradient                 
  Christoph Reimann      : Effective Core Potentials                     
  Marius Retegan         : Local ZFS, SOC                                
  Christoph Riplinger    : Optimizer, TS searches, QM/MM, DLPNO-CCSD(T), (RO)-DLPNO pert. Triples 
  Michael Roemelt        : Original ROCIS implementation                 
  Masaaki Saitow         : Open-shell DLPNO-CCSD energy and density      
  Barbara Sandhoefer     : DKH picture change effects                    
  Kantharuban Sivalingam : CASSCF convergence/infrastructure, NEVPT2 and variants, FIC-MRCI 
  Bernardo de Souza      : ESD, SOC TD-DFT                               
  Georgi L. Stoychev     : AutoAux, RI-MP2 NMR, DLPNO-MP2 response, X2C  
  Van Anh Tran           : RI-MP2 g-tensors                              
  Willem Van den Heuvel  : Paramagnetic NMR                              
  Zikuan Wang            : NOTCH, Electric field optimization            
  Frank Wennmohs         : Technical directorship and infrastructure     
  Hang Xu                : AUTO-CI-Response properties                   
                                                                         
[FACCTs GmbH]                                                            
  Markus Bursch, Miquel Garcia-Rates, Christoph Riplinger, Bernardo de Souza, Georgi L. Stoychev 
                                                                 
  APM, Basis sets (HGBS, AHGBS, def-TZVP (Ac-Lr), def2-XVPD (La-Lu)), CI-OPT, improved COSX, DLPNO-Multilevel,           
  DOCKER, DRACO, updates on ESD, GOAT, IRC, LR-CPCM, MBIS, meta-GGA TD-DFT gradient, ML-optimized integration grids, 
  MM, NACMEs, nearIR, NEB, NEB-TS, NL-DFT gradient (VV10), 2- and 3-layer-ONIOM, interface openCOSMO-RS, QMMM,   
  Crystal-QMMM, SF, symmetry and pop. for TD-DFT, r2SCAN hybrids, SOLVATOR                                   
                                                                         
[Other institutions]                                                     
  V. Asgeirsson          : NEB                                           
  Christoph Bannwarth    : sTDA-DFT, sTD-DFT, PBEh-3c, B97-3c, D3        
  Sebastian Ehlert       : rSCAN, r2SCAN, r2SCAN-3c, D4, dhf basis sets  
  Marvin Friede          : D4 for Fr, Ra, Ac-Lr                          
  Lars Goerigk           : TD-DFT with DH, B97 family of functionals     
  Stefan Grimme          : VdW corrections, initial TS optimization, DFT functionals, gCP, sTDA/sTD-DF 
  Waldemar Hujo          : DFT-NL                                        
  H. Jonsson             : NEB                                           
  Holger Kruse           : gCP                                           
  Marcel Mueller         : wB97X-3c, vDZP basis set                      
  Hagen Neugebauer       : wr2SCAN                                       
  Tobias Risthaus        : range-separated hybrid DFT                    
  Lukas Wittmann         : regularized MP2, r2SCAN double-hybrids, wr2SCAN        
                                                                         
We gratefully acknowledge several colleagues who have allowed us to      
interface, adapt or use parts of their codes:                            
  Ed Valeev, F. Pavosevic, A. Kumar             : LibInt (2-el integral package), F12 methods 
  Garnet Chan, S. Sharma, J. Yang, R. Olivares  : DMRG                   
  Ulf Ekstrom                                   : XCFun DFT Library      
  Mihaly Kallay                                 : mrcc  (arbitrary order and MRCC methods)
  Frank Weinhold                                : gennbo (NPA and NBO analysis)           
  Simon Mueller                                 : openCOSMO-RS                            
  Christopher J. Cramer and Donald G. Truhlar   : smd solvation model                     
  S Lehtola, MJT Oliveira, MAL Marques          : LibXC Library                           
  Liviu Ungur et al                             : ANISO software                          


 Your calculation uses the libint2 library for the computation of 2-el integrals
 For citations please refer to: http://libint.valeyev.net

 Your ORCA version has been built with support for libXC version: 6.2.2
 For citations please refer to: https://libxc.gitlab.io

 This ORCA versions uses:
   CBLAS   interface :  Fast vector & matrix operations
   LAPACKE interface :  Fast linear algebra routines
   SCALAPACK package :  Parallel linear algebra routines
   Shared memory     :  Shared parallel matrices
   BLAS/LAPACK       :  OpenBLAS 0.3.27  USE64BITINT DYNAMIC_ARCH NO_AFFINITY Cooperlake SINGLE_THREADED
        Core in use  :  Cooperlake
   Copyright (c) 2011-2014, The OpenBLAS Project




***************************************
The coordinates will be read from file: product.xyz
***************************************


Warning: RI is on but no J-basis has been assigned. Assigning Def2/J (nothing to worry about!)
================================================================================

----- Orbital basis set information -----
Your calculation utilizes the basis: def2-SVP
   F. Weigend and R. Ahlrichs, Phys. Chem. Chem. Phys. 7, 3297 (2005).

----- AuxJ basis set information -----
Your calculation utilizes the auxiliary basis: def2/J
   F. Weigend, Phys. Chem. Chem. Phys. 8, 1057 (2006).

================================================================================
                                        WARNINGS
                       Please study these warnings very carefully!
================================================================================


WARNING: Geometry Optimization
  ===> : Switching off AutoStart
         For restart on a previous wavefunction, please use MOREAD

================================================================================
                                       INPUT FILE
================================================================================
NAME = product_opt.inp
|  1> ! Opt Freq B3LYP def2-SVP
|  2> * xyzfile -1 1 product.xyz
|  3> 
|  4>                          ****END OF INPUT****
================================================================================

                       *****************************
                       * Geometry Optimization Run *
                       *****************************

Geometry optimization settings:
Update method            Update   .... BFGS
Choice of coordinates    CoordSys .... (2022) Redundant Internals
Initial Hessian          InHess   .... Almloef's Model
Max. no of cycles        MaxIter  .... 50

Convergence Tolerances:
Energy Change            TolE     ....  5.0000e-06 Eh
Max. Gradient            TolMAXG  ....  3.0000e-04 Eh/bohr
RMS Gradient             TolRMSG  ....  1.0000e-04 Eh/bohr
Max. Displacement        TolMAXD  ....  4.0000e-03 bohr
RMS Displacement         TolRMSD  ....  2.0000e-03 bohr
Strict Convergence                .... False

------------------------------------------------------------------------------
                        ORCA OPTIMIZATION COORDINATE SETUP
------------------------------------------------------------------------------

The optimization will be done in redundant internal coordinates (2022)
Making redundant internal coordinates   ...  (2022 redundants) done
Evaluating the initial hessian          ...  (Almloef) done
Evaluating the coordinates              ...  done
Calculating the B-matrix                .... done
Calculating the G-matrix                .... done
Diagonalizing the G-matrix              .... done
The first mode is                       ....   12
The number of degrees of freedom        ....   12

    -----------------------------------------------------------------
                    Redundant Internal Coordinates


    -----------------------------------------------------------------
         Definition                    Initial Value    Approx d2E/dq
    -----------------------------------------------------------------
      1. B(H   1,C   0)                  1.0922         0.357194   
      2. B(Br  2,H   1)                  1.6455         0.157256   
      3. B(Br  2,C   0)                  2.0572         0.181024   
      4. B(H   3,C   0)                  1.0922         0.357177   
      5. B(H   4,C   0)                  1.0922         0.357199   
      6. B(Cl  5,C   0)                  1.7669         0.351026   
      7. A(H   4,C   0,Cl  5)          109.0817         0.333962   
      8. A(H   1,C   0,Br  2)           52.7947         0.305302   
      9. A(H   1,C   0,H   3)          109.8578         0.290098   
     10. A(Br  2,C   0,H   3)           63.7647         0.305299   
     11. A(H   1,C   0,H   4)          109.8593         0.290101   
     12. A(Br  2,C   0,H   4)          102.4387         0.305302   
     13. A(H   3,C   0,H   4)          109.8580         0.290099   
     14. A(H   1,C   0,Cl  5)          109.0816         0.333961   
     15. A(Br  2,C   0,Cl  5)          147.9590         0.352478   
     16. A(H   3,C   0,Cl  5)          109.0804         0.333958   
     17. A(C   0,H   1,Br  2)           95.2908         0.275643   
     18. A(C   0,Br  2,H   1)           31.9145         0.289751   
     19. D(Br  2,H   1,C   0,Cl  5)   -149.7158         0.129899   
     20. D(Br  2,H   1,C   0,H   3)    -30.1974         0.129899   
     21. D(Br  2,H   1,C   0,H   4)     90.7633         0.129899   
     22. D(H   1,Br  2,C   0,Cl  5)     63.9376         0.001935   
     23. D(H   1,Br  2,C   0,H   4)   -105.6236         0.001935   
     24. D(H   1,Br  2,C   0,H   3)    148.1698         0.001935   
    -----------------------------------------------------------------

Number of atoms                         .... 6
Number of degrees of freedom            .... 24


         *************************************************************
         *                GEOMETRY OPTIMIZATION CYCLE   1            *
         *************************************************************
---------------------------------
CARTESIAN COORDINATES (ANGSTROEM)
---------------------------------
  C     -2.959680    1.187800    0.062110
  H     -1.867500    1.194340    0.058580
  Br    -1.706150   -0.442210   -0.000000
  H     -3.327250    0.316590   -0.484540
  H     -3.327250    1.162860    1.090300
  Cl    -3.548670    2.655230   -0.726460

----------------------------
CARTESIAN COORDINATES (A.U.)
----------------------------
  NO LB      ZA    FRAG     MASS         X           Y           Z
   0 C     6.0000    0    12.011   -5.592985    2.244617    0.117371
   1 H     1.0000    0     1.008   -3.529064    2.256976    0.110700
   2 Br   35.0000    0    79.900   -3.224156   -0.835656   -0.000000
   3 H     1.0000    0     1.008   -6.287591    0.598268   -0.915648
   4 H     1.0000    0     1.008   -6.287591    2.197487    2.060368
   5 Cl   17.0000    0    35.453   -6.706014    5.017658   -1.372810

--------------------------------
INTERNAL COORDINATES (ANGSTROEM)
--------------------------------
 C      0   0   0     0.000000000000     0.00000000     0.00000000
 H      1   0   0     1.092205285146     0.00000000     0.00000000
 Br     2   1   0     1.645527678710    95.29083000     0.00000000
 H      1   2   3     1.092218289309   109.85775387   329.80256840
 H      1   2   3     1.092201622687   109.85932484    90.76334712
 Cl     1   2   3     1.766947274228   109.08161251   210.28418335

---------------------------
INTERNAL COORDINATES (A.U.)
---------------------------
 C      0   0   0     0.000000000000     0.00000000     0.00000000
 H      1   0   0     2.063968870947     0.00000000     0.00000000
 Br     2   1   0     3.109596658549    95.29083000     0.00000000
 H      1   2   3     2.063993445253   109.85775387   329.80256840
 H      1   2   3     2.063961949903   109.85932484    90.76334712
 Cl     1   2   3     3.339046441369   109.08161251   210.28418335

---------------------
BASIS SET INFORMATION
---------------------
There are 4 groups of distinct atoms

 Group   1 Type C   : 7s4p1d contracted to 3s2p1d pattern {511/31/1}
 Group   2 Type H   : 4s1p contracted to 2s1p pattern {31/1}
 Group   3 Type Br  : 14s10p6d contracted to 5s4p3d pattern {63311/5311/411}
 Group   4 Type Cl  : 10s7p1d contracted to 4s3p1d pattern {5311/511/1}

Atom   0C    basis set group =>   1
Atom   1H    basis set group =>   2
Atom   2Br   basis set group =>   3
Atom   3H    basis set group =>   2
Atom   4H    basis set group =>   2
Atom   5Cl   basis set group =>   4
---------------------------------
AUXILIARY/J BASIS SET INFORMATION
---------------------------------
There are 4 groups of distinct atoms

 Group   1 Type C   : 12s5p4d2f1g contracted to 6s4p3d1f1g pattern {711111/2111/211/2/1}
 Group   2 Type H   : 5s2p1d contracted to 3s1p1d pattern {311/2/1}
 Group   3 Type Br  : 19s5p5d3f1g contracted to 8s4p3d2f1g pattern {121111111/2111/311/21/1}
 Group   4 Type Cl  : 14s5p5d2f1g contracted to 8s4p3d1f1g pattern {71111111/2111/311/2/1}

Atom   0C    basis set group =>   1
Atom   1H    basis set group =>   2
Atom   2Br   basis set group =>   3
Atom   3H    basis set group =>   2
Atom   4H    basis set group =>   2
Atom   5Cl   basis set group =>   4
------------------------------------------------------------------------------
                             ORCA STARTUP CALCULATIONS
                           -- RI-GTO INTEGRALS CHOSEN --
------------------------------------------------------------------------------
------------------------------------------------------------------------------
                   ___                                                        
                  /   \      - P O W E R E D   B Y -                         
                 /     \                                                     
                 |  |  |   _    _      __       _____    __    __             
                 |  |  |  | |  | |    /  \     |  _  \  |  |  /  |          
                  \  \/   | |  | |   /    \    | | | |  |  | /  /          
                 / \  \   | |__| |  /  /\  \   | |_| |  |  |/  /          
                |  |  |   |  __  | /  /__\  \  |    /   |      \           
                |  |  |   | |  | | |   __   |  |    \   |  |\   \          
                \     /   | |  | | |  |  |  |  | |\  \  |  | \   \       
                 \___/    |_|  |_| |__|  |__|  |_| \__\ |__|  \__/        
                                                                              
                      - O R C A' S   B I G   F R I E N D -                    
                                      &                                       
                       - I N T E G R A L  F E E D E R -                       
                                                                              
 v1 FN, 2020, v2 2021, v3 2022-2024                                           
------------------------------------------------------------------------------


----------------------
SHARK INTEGRAL PACKAGE
----------------------

Number of atoms                             ...      6
Number of basis functions                   ...     79
Number of shells                            ...     35
Maximum angular momentum                    ...      2
Integral batch strategy                     ... SHARK/LIBINT Hybrid
RI-J (if used) integral strategy            ... SPLIT-RIJ (Revised 2003 algorithm where possible)
Printlevel                                  ...      1
Contraction scheme used                     ... SEGMENTED contraction
Prescreening option                         ... SCHWARTZ
   Thresh                                   ... 2.500e-11
   Tcut                                     ... 2.500e-12
   Tpresel                                  ... 2.500e-12 
Coulomb Range Separation                    ... NOT USED
Exchange Range Separation                   ... NOT USED
Multipole approximations                    ... NOT USED
Finite Nucleus Model                        ... NOT USED
CABS basis                                  ... NOT available
Auxiliary Coulomb fitting basis             ... AVAILABLE
   # of basis functions in Aux-J            ...    191
   # of shells in Aux-J                     ...     65
   Maximum angular momentum in Aux-J        ...      4
Auxiliary J/K fitting basis                 ... NOT available
Auxiliary Correlation fitting basis         ... NOT available
Auxiliary 'external' fitting basis          ... NOT available

Checking pre-screening integrals            ... done (  0.0 sec) Dimension = 35
Check shell pair data                       ... done (  0.0 sec)
Shell pair information
Shell pair cut-off parameter TPreSel        ...   2.5e-12
Total number of shell pairs                 ...       630
Shell pairs after pre-screening             ...       598
Total number of primitive shell pairs       ...      2935
Primitive shell pairs kept                  ...      2209
          la=0 lb=0:    162 shell pairs
          la=1 lb=0:    206 shell pairs
          la=1 lb=1:     75 shell pairs
          la=2 lb=0:     84 shell pairs
          la=2 lb=1:     56 shell pairs
          la=2 lb=2:     15 shell pairs

Calculating one electron integrals          ... done (  0.0 sec)
Calculating RI/J V-Matrix + Cholesky decomp.... done (  0.0 sec)
Calculating Nuclear repulsion               ... done (  0.0 sec) ENN=    219.812963512082 Eh

Diagonalization of the overlap matrix:
Smallest eigenvalue                        ... 9.429e-03
Time for diagonalization                   ...    0.001 sec
Threshold for overlap eigenvalues          ... 1.000e-07
Number of eigenvalues below threshold      ... 0
Time for construction of square roots      ...    0.000 sec
Total time needed                          ...    0.002 sec

-------------------
DFT GRID GENERATION
-------------------

General Integration Accuracy     IntAcc      ... 4.388
Radial Grid Type                 RadialGrid  ... OptM3 with GC (2021)
Angular Grid (max. ang.)         AngularGrid ... 4 (Lebedev-302)
Angular grid pruning method      GridPruning ... 4 (adaptive)
Weight generation scheme         WeightScheme... mBecke (2022)
Basis function cutoff            BFCut       ... 1.0000e-11
Integration weight cutoff        WCut        ... 1.0000e-14
Partially contracted basis set               ... off
Rotationally invariant grid construction     ... off
Angular grids for H and He will be reduced by one unit
Core-polarized basis detected: some atoms will have their core
                               angular grid increased.

Total number of grid points                  ...    34513
Total number of batches                      ...      542
Average number of points per batch           ...       63
Average number of grid points per atom       ...     5752

--------------------
COSX GRID GENERATION
--------------------

GRIDX 1
-------
General Integration Accuracy     IntAcc      ... 3.816
Radial Grid Type                 RadialGrid  ... OptM3 with GC (2021)
Angular Grid (max. ang.)         AngularGrid ... 1 (Lebedev-50)
Angular grid pruning method      GridPruning ... 4 (adaptive)
Weight generation scheme         WeightScheme... mBecke (2022)
Basis function cutoff            BFCut       ... 1.0000e-11
Integration weight cutoff        WCut        ... 1.0000e-14
Partially contracted basis set               ... on
Rotationally invariant grid construction     ... off
Angular grids for H and He will be reduced by one unit
Core-polarized basis detected: some atoms will have their core
                               angular grid increased.

Total number of grid points                  ...    10194
Total number of batches                      ...       83
Average number of points per batch           ...      122
Average number of grid points per atom       ...     1699
UseSFitting                                  ... on

GRIDX 2
-------
General Integration Accuracy     IntAcc      ... 4.020
Radial Grid Type                 RadialGrid  ... OptM3 with GC (2021)
Angular Grid (max. ang.)         AngularGrid ... 2 (Lebedev-110)
Angular grid pruning method      GridPruning ... 4 (adaptive)
Weight generation scheme         WeightScheme... mBecke (2022)
Basis function cutoff            BFCut       ... 1.0000e-11
Integration weight cutoff        WCut        ... 1.0000e-14
Partially contracted basis set               ... on
Rotationally invariant grid construction     ... off
Angular grids for H and He will be reduced by one unit
Core-polarized basis detected: some atoms will have their core
                               angular grid increased.

Total number of grid points                  ...    12368
Total number of batches                      ...      100
Average number of points per batch           ...      123
Average number of grid points per atom       ...     2061
UseSFitting                                  ... on

GRIDX 3
-------
General Integration Accuracy     IntAcc      ... 4.338
Radial Grid Type                 RadialGrid  ... OptM3 with GC (2021)
Angular Grid (max. ang.)         AngularGrid ... 3 (Lebedev-194)
Angular grid pruning method      GridPruning ... 4 (adaptive)
Weight generation scheme         WeightScheme... mBecke (2022)
Basis function cutoff            BFCut       ... 1.0000e-11
Integration weight cutoff        WCut        ... 1.0000e-14
Partially contracted basis set               ... on
Rotationally invariant grid construction     ... off
Angular grids for H and He will be reduced by one unit
Core-polarized basis detected: some atoms will have their core
                               angular grid increased.

Total number of grid points                  ...    20443
Total number of batches                      ...      163
Average number of points per batch           ...      125
Average number of grid points per atom       ...     3407
UseSFitting                                  ... on
Initializing property integral containers    ... done (  0.0 sec)

SHARK setup successfully completed in   0.5 seconds

Maximum memory used throughout the entire STARTUP-calculation: 16.6 MB
-------------------------------------------------------------------------------
                                 ORCA GUESS
                   Start orbitals & Density for SCF / CASSCF
-------------------------------------------------------------------------------

------------
SCF SETTINGS
------------
Hamiltonian:
 Density Functional     Method          .... DFT(GTOs)
 Exchange Functional    Exchange        .... B88
   X-Alpha parameter    XAlpha          ....  0.666667
   Becke's b parameter  XBeta           ....  0.004200
 Correlation Functional Correlation     .... LYP
 LDA part of GGA corr.  LDAOpt          .... VWN-5
 Gradients option       PostSCFGGA      .... off
 Hybrid DFT is turned on
   Fraction HF Exchange ScalHFX         ....  0.200000
   Scaling of DF-GGA-X  ScalDFX         ....  0.720000
   Scaling of DF-GGA-C  ScalDFC         ....  0.810000
   Scaling of DF-LDA-C  ScalLDAC        ....  1.000000
   Perturbative correction              ....  0.000000
   NL short-range parameter             ....  4.800000
 RI-approximation to the Coulomb term is turned on
   Number of AuxJ basis functions       .... 191
   RIJ-COSX (HFX calculated with COS-X)).... on


General Settings:
 Integral files         IntName         .... product_opt
 Hartree-Fock type      HFTyp           .... RHF
 Total Charge           Charge          ....   -1
 Multiplicity           Mult            ....    1
 Number of Electrons    NEL             ....   62
 Basis Dimension        Dim             ....   79
 Nuclear Repulsion      ENuc            ....    219.8129635121 Eh

Convergence Acceleration:
 AO-DIIS                CNVDIIS         .... on
   Start iteration      DIISMaxIt       ....    12
   Startup error        DIISStart       ....  0.200000
   # of expansion vecs  DIISMaxEq       ....     5
   Bias factor          DIISBfac        ....   1.050
   Max. coefficient     DIISMaxC        ....  10.000
 MO-DIIS                CNVKDIIS        .... off
 Trust-Rad. Augm. Hess. CNVTRAH         .... auto
   Auto Start mean grad. ratio tolernc. ....  1.125000
   Auto Start start iteration           ....    50
   Auto Start num. interpolation iter.  ....    10
   Max. Number of Micro iterations      ....    24
   Max. Number of Macro iterations      .... Maxiter - #DIIS iter
   Number of Davidson start vectors     ....     2
   Converg. threshold    (grad. norm)   ....   1.000e-05
   Grad. Scal. Fac. for Micro threshold ....   0.100
   Minimum threshold for Micro iter.    ....   1.000e-02
   NR start threshold (gradient norm)   ....   1.000e-04
   Initial trust radius                 ....   0.400
   Minimum AH scaling param. (alpha)    ....   1.000
   Maximum AH scaling param. (alpha)    .... 1000.000
   Quad. conv. algorithm                .... NR
   White noise on init. David. guess    .... on
   Maximum white noise                  ....   0.010
   Pseudo random numbers                .... off
   Inactive MOs                         .... canonical
   Orbital update algorithm             .... Taylor
   Preconditioner                       .... Diag
   Full preconditioner red. dimension   ....   250
 SOSCF                  CNVSOSCF        .... on
   Start iteration      SOSCFMaxIt      ....   150
   Startup grad/error   SOSCFStart      ....  0.003300
   Hessian update       SOSCFHessUp     .... L-BFGS
 Level Shifting         CNVShift        .... on
   Level shift para.    LevelShift      ....    0.2500
   Turn off err/grad.   ShiftErr        ....    0.0010
 Zerner damping         CNVZerner       .... off
 Static damping         CNVDamp         .... on
   Fraction old density DampFac         ....    0.7000
   Max. Damping (<1)    DampMax         ....    0.9800
   Min. Damping (>=0)   DampMin         ....    0.0000
   Turn off err/grad.   DampErr         ....    0.1000

SCF Procedure:
 Maximum # iterations   MaxIter         ....   125
 SCF integral mode      SCFMode         .... Direct
   Integral package                     .... SHARK and LIBINT hybrid scheme
 Reset frequency        DirectResetFreq ....    20
 Integral Threshold     Thresh          ....  2.500e-11 Eh
 Primitive CutOff       TCut            ....  2.500e-12 Eh

Convergence Tolerance:
 Convergence Check Mode ConvCheckMode   .... Total+1el-Energy
 Convergence forced     ConvForced      .... 0
 Energy Change          TolE            ....  1.000e-08 Eh
 1-El. energy change                    ....  1.000e-05 Eh
 Orbital Gradient       TolG            ....  1.000e-05
 Orbital Rotation angle TolX            ....  1.000e-05
 DIIS Error             TolErr          ....  5.000e-07

------------------------------
INITIAL GUESS: MODEL POTENTIAL
------------------------------
Loading Hartree-Fock densities                     ... done
Calculating cut-offs                               ... done
Initializing the effective Hamiltonian             ... done
Setting up the integral package (SHARK)            ... done
Starting the Coulomb interaction                   ... done (   0.0 sec)
Making the grid                                    ... done (   0.1 sec)
Mapping shells                                     ... done
Starting the XC term evaluation                    ... done (   0.0 sec)
  promolecular density results
     # of electrons  =     60.998166233
     EX              =   -123.330274654
     EC              =     -2.697439875
     EX+EC           =   -126.027714529
Transforming the Hamiltonian                       ... done (   0.0 sec)
Diagonalizing the Hamiltonian                      ... done (   0.0 sec)
Back transforming the eigenvectors                 ... done (   0.0 sec)
Now organizing SCF variables                       ... done
                      ------------------
                      INITIAL GUESS DONE (   0.1 sec)
                      ------------------
             **** ENERGY FILE WAS UPDATED (product_opt.en.tmp) ****
Finished Guess after   0.2 sec
Maximum memory used throughout the entire GUESS-calculation: 9.7 MB

-------------------------------------------------------------------------------------------
                                      ORCA LEAN-SCF
                              memory conserving SCF solver
-------------------------------------------------------------------------------------------

----------------------------------------D-I-I-S--------------------------------------------
Iteration    Energy (Eh)           Delta-E    RMSDP     MaxDP     DIISErr   Damp  Time(sec)
-------------------------------------------------------------------------------------------
               ***  Starting incremental Fock matrix formation  ***
    1    -3073.3595739194543057     0.00e+00  6.98e-03  1.21e-01  1.61e-01  0.700   0.9
    2    -3073.4000795107722297    -4.05e-02  5.14e-03  7.85e-02  8.16e-02  0.700   0.7
                               ***Turning on AO-DIIS***
    3    -3073.4179238382985204    -1.78e-02  2.34e-03  3.86e-02  3.24e-02  0.700   0.7
    4    -3073.4284608161597134    -1.05e-02  3.98e-03  6.14e-02  1.82e-02  0.000   0.7
    5    -3073.4509281008972721    -2.25e-02  6.88e-04  1.32e-02  4.67e-03  0.000   0.7
                              *** Initializing SOSCF ***
---------------------------------------S-O-S-C-F--------------------------------------
Iteration    Energy (Eh)           Delta-E    RMSDP     MaxDP     MaxGrad    Time(sec)
--------------------------------------------------------------------------------------
    6    -3073.4510744159442766    -1.46e-04  2.05e-04  5.32e-03  1.81e-03     0.7
               *** Restarting incremental Fock matrix formation ***
    7    -3073.4510836058698260    -9.19e-06  2.00e-04  5.00e-03  2.03e-04     0.9
    8    -3073.4510843403536455    -7.34e-07  4.20e-05  6.94e-04  1.62e-04     0.8
    9    -3073.4510847722644939    -4.32e-07  1.61e-05  2.55e-04  6.22e-05     0.7
   10    -3073.4510847860524336    -1.38e-08  7.64e-06  1.45e-04  3.57e-05     0.7
   11    -3073.4510848055106180    -1.95e-08  2.82e-06  4.35e-05  1.33e-05     0.7
   12    -3073.4510848061672732    -6.57e-10  1.31e-06  2.75e-05  7.93e-06     0.6
                 **** Energy Check signals convergence ****

               *****************************************************
               *                     SUCCESS                       *
               *           SCF CONVERGED AFTER  12 CYCLES          *
               *****************************************************

Recomputing exchange energy using gridx3       ... done (    1.239 sec)
Old exchange energy                            :    -24.757036668 Eh
New exchange energy                            :    -24.757033551 Eh
Exchange energy change after final integration :      0.000003117 Eh
Total energy after final integration           :  -3073.451081689 Eh
             **** ENERGY FILE WAS UPDATED (product_opt.en.tmp) ****

----------------
TOTAL SCF ENERGY
----------------

Total Energy       :      -3073.45108168923070 Eh          -83632.85574 eV

Components:
Nuclear Repulsion  :        219.81296351208223 Eh            5981.41483 eV
Electronic Energy  :      -3293.26404831824948 Eh          -89614.27066 eV
One Electron Energy:      -4724.68843359645234 Eh         -128565.30841 eV
Two Electron Energy:       1431.42438527820264 Eh           38951.03776 eV

Virial components:
Potential Energy   :      -6144.16060965005272 Eh         -167191.11002 eV
Kinetic Energy     :       3070.70952796082247 Eh           83558.25428 eV
Virial Ratio       :          2.00089280790105

DFT components:
N(Alpha)           :       30.999999061381 electrons
N(Beta)            :       30.999999061381 electrons
N(Total)           :       61.999998122762 electrons
E(X)               :      -98.448373350023 Eh       
E(C)               :       -3.187025689027 Eh       
E(XC)              :     -101.635399039050 Eh       

---------------
SCF CONVERGENCE
---------------

  Last Energy change         ...    6.5666e-10  Tolerance :   1.0000e-08
  Last MAX-Density change    ...    2.7522e-05  Tolerance :   1.0000e-07
  Last RMS-Density change    ...    1.3070e-06  Tolerance :   5.0000e-09
  Last DIIS Error            ...    1.8133e-03  Tolerance :   5.0000e-07
  Last Orbital Gradient      ...    7.9313e-06  Tolerance :   1.0000e-05
  Last Orbital Rotation      ...    8.5283e-06  Tolerance :   1.0000e-05


----------------
ORBITAL ENERGIES
----------------

  NO   OCC          E(Eh)            E(eV) 
   0   2.0000    -482.478832    -13128.9165 
   1   2.0000    -101.252289     -2755.2149 
   2   2.0000     -62.166676     -1691.6413 
   3   2.0000     -55.997398     -1523.7667 
   4   2.0000     -55.996496     -1523.7421 
   5   2.0000     -55.996331     -1523.7376 
   6   2.0000      -9.995725      -271.9975 
   7   2.0000      -9.209426      -250.6012 
   8   2.0000      -8.387506      -228.2356 
   9   2.0000      -6.976381      -189.8370 
  10   2.0000      -6.969459      -189.6486 
  11   2.0000      -6.969385      -189.6466 
  12   2.0000      -6.214726      -169.1113 
  13   2.0000      -6.211991      -169.0369 
  14   2.0000      -6.210757      -169.0033 
  15   2.0000      -2.330608       -63.4191 
  16   2.0000      -2.330010       -63.4028 
  17   2.0000      -2.328941       -63.3737 
  18   2.0000      -2.326768       -63.3146 
  19   2.0000      -2.326648       -63.3113 
  20   2.0000      -0.639937       -17.4136 
  21   2.0000      -0.560525       -15.2527 
  22   2.0000      -0.402315       -10.9475 
  23   2.0000      -0.264123        -7.1872 
  24   2.0000      -0.248730        -6.7683 
  25   2.0000      -0.208554        -5.6751 
  26   2.0000      -0.097224        -2.6456 
  27   2.0000      -0.089026        -2.4225 
  28   2.0000      -0.035207        -0.9580 
  29   2.0000      -0.008575        -0.2333 
  30   2.0000       0.067477         1.8361 
  31   0.0000       0.244471         6.6524 
  32   0.0000       0.293213         7.9787 
  33   0.0000       0.313011         8.5175 
  34   0.0000       0.349054         9.4982 
  35   0.0000       0.558953        15.2099 
  36   0.0000       0.590702        16.0738 
  37   0.0000       0.602639        16.3987 
  38   0.0000       0.672691        18.3049 
  39   0.0000       0.689745        18.7689 
  40   0.0000       0.738069        20.0839 
  41   0.0000       0.778578        21.1862 
*Only the first 10 virtual orbitals were printed.

                    ********************************
                    * MULLIKEN POPULATION ANALYSIS *
                    ********************************

-----------------------
MULLIKEN ATOMIC CHARGES
-----------------------
   0 C :    0.022107
   1 H :    0.053586
   2 Br:   -0.714176
   3 H :    0.056621
   4 H :   -0.024203
   5 Cl:   -0.393935
Sum of atomic charges:   -1.0000000

--------------------------------
MULLIKEN REDUCED ORBITAL CHARGES
--------------------------------
  0 C s       :     3.115221  s :     3.115221
      pz      :     0.986829  p :     2.810333
      px      :     1.016826
      py      :     0.806677
      dz2     :     0.009764  d :     0.052339
      dxz     :     0.004584
      dyz     :     0.010072
      dx2y2   :     0.013045
      dxy     :     0.014874

  1 H s       :     0.897476  s :     0.897476
      pz      :     0.006836  p :     0.048938
      px      :     0.021726
      py      :     0.020377

  2 Brs       :     7.983624  s :     7.983624
      pz      :     5.956338  p :    17.674351
      px      :     5.859539
      py      :     5.858474
      dz2     :     2.008975  d :    10.056201
      dxz     :     2.004624
      dyz     :     2.005000
      dx2y2   :     2.020858
      dxy     :     2.016745

  3 H s       :     0.906298  s :     0.906298
      pz      :     0.008564  p :     0.037081
      px      :     0.011345
      py      :     0.017172

  4 H s       :     1.001447  s :     1.001447
      pz      :     0.012915  p :     0.022756
      px      :     0.005887
      py      :     0.003953

  5 Cls       :     5.951271  s :     5.951271
      pz      :     3.843719  p :    11.407415
      px      :     3.937192
      py      :     3.626504
      dz2     :     0.005301  d :     0.035249
      dxz     :     0.003163
      dyz     :     0.008995
      dx2y2   :     0.008223
      dxy     :     0.009568



                     *******************************
                     * LOEWDIN POPULATION ANALYSIS *
                     *******************************

----------------------
LOEWDIN ATOMIC CHARGES
----------------------
   0 C :   -0.225744
   1 H :   -0.068961
   2 Br:   -0.476626
   3 H :   -0.025188
   4 H :   -0.017573
   5 Cl:   -0.185908

-------------------------------
LOEWDIN REDUCED ORBITAL CHARGES
-------------------------------
  0 C s       :     2.962572  s :     2.962572
      pz      :     1.080533  p :     3.134777
      px      :     1.087822
      py      :     0.966421
      dz2     :     0.024621  d :     0.128395
      dxz     :     0.010289
      dyz     :     0.025198
      dx2y2   :     0.032831
      dxy     :     0.035456

  1 H s       :     0.875618  s :     0.875618
      pz      :     0.016992  p :     0.193343
      px      :     0.085860
      py      :     0.090492

  2 Brs       :     7.842343  s :     7.842343
      pz      :     5.940867  p :    17.501844
      px      :     5.807209
      py      :     5.753768
      dz2     :     2.029468  d :    10.132439
      dxz     :     2.007009
      dyz     :     2.005471
      dx2y2   :     2.048164
      dxy     :     2.042327

  3 H s       :     0.903337  s :     0.903337
      pz      :     0.022220  p :     0.121852
      px      :     0.032181
      py      :     0.067451

  4 H s       :     0.945436  s :     0.945436
      pz      :     0.040272  p :     0.072137
      px      :     0.019186
      py      :     0.012679

  5 Cls       :     5.785737  s :     5.785737
      pz      :     3.834296  p :    11.353542
      px      :     3.908194
      py      :     3.611052
      dz2     :     0.006753  d :     0.046629
      dxz     :     0.004401
      dyz     :     0.011116
      dx2y2   :     0.010522
      dxy     :     0.013836



                      *****************************
                      * MAYER POPULATION ANALYSIS *
                      *****************************

  NA   - Mulliken gross atomic population
  ZA   - Total nuclear charge
  QA   - Mulliken gross atomic charge
  VA   - Mayer's total valence
  BVA  - Mayer's bonded valence
  FA   - Mayer's free valence

  ATOM       NA         ZA         QA         VA         BVA        FA
  0 C      5.9779     6.0000     0.0221     3.5741     3.5741    -0.0000
  1 H      0.9464     1.0000     0.0536     1.0815     1.0815    -0.0000
  2 Br    35.7142    35.0000    -0.7142     0.4186     0.4186    -0.0000
  3 H      0.9434     1.0000     0.0566     1.0263     1.0263    -0.0000
  4 H      1.0242     1.0000    -0.0242     0.9885     0.9885     0.0000
  5 Cl    17.3939    17.0000    -0.3939     0.8315     0.8315    -0.0000

  Mayer bond orders larger than 0.100000
B(  0-C ,  1-H ) :   0.9098 B(  0-C ,  3-H ) :   0.9660 B(  0-C ,  4-H ) :   0.9556 
B(  0-C ,  5-Cl) :   0.6880 B(  1-H ,  2-Br) :   0.1627 B(  2-Br,  5-Cl) :   0.1121 


-------
TIMINGS
-------

Total SCF time: 0 days 0 hours 0 min 10 sec 

Total time                  ....      10.043 sec
Sum of individual times     ....       9.986 sec  ( 99.4%)

SCF preparation             ....       0.063 sec  (  0.6%)
Fock matrix formation       ....       9.886 sec  ( 98.4%)
  Startup                   ....       0.002 sec  (  0.0% of F)
  Split-RI-J                ....       0.376 sec  (  3.8% of F)
  Chain of spheres X        ....       8.098 sec  ( 81.9% of F)
  XC integration            ....       1.391 sec  ( 14.1% of F)
    XC Preparation          ....       0.000 sec  (  0.0% of XC)
    Basis function eval.    ....       0.581 sec  ( 41.7% of XC)
    Density eval.           ....       0.220 sec  ( 15.8% of XC)
    XC-Functional eval.     ....       0.161 sec  ( 11.6% of XC)
    XC-Potential eval.      ....       0.283 sec  ( 20.4% of XC)
Diagonalization             ....       0.000 sec  (  0.0%)
Density matrix formation    ....       0.009 sec  (  0.1%)
Total Energy calculation    ....       0.002 sec  (  0.0%)
Population analysis         ....       0.003 sec  (  0.0%)
Orbital Transformation      ....       0.003 sec  (  0.0%)
Orbital Orthonormalization  ....       0.000 sec  (  0.0%)
DIIS solution               ....       0.012 sec  (  0.1%)
SOSCF solution              ....       0.009 sec  (  0.1%)
Finished LeanSCF after  10.0 sec

Maximum memory used throughout the entire LEANSCF-calculation: 9.0 MB

------------------------------------------------------------------------------
                         ORCA PROPERTY INTEGRAL CALCULATIONS
------------------------------------------------------------------------------

GBWName                                   ... product_opt.gbw
Number of atoms                           ...      6
Number of basis functions                 ...     79
Max core memory                           ...   1024 MB

Dipole integrals                          ... YES
Quadrupole integrals                      ...  NO
Linear momentum integrals                 ...  NO
Angular momentum integrals                ...  NO
Higher moments length integrals           ...  NO
Higher moments velocity integrals         ...  NO
Kinetic energy integrals                  ...  NO
GIAO right hand sides                     ...  NO
GIAO dipole derivative integrals          ...  NO
SOC integrals                             ...  NO
EPR diamagnetic integrals (GIAO)          ...  NO
EPR gauge integrals                       ...  NO
Field gradient integrals                  ...  NO (   0 nuclei)
Spin-dipole/Fermi contact integrals       ...  NO (   0 nuclei)
Contact density integrals                 ...  NO (   0 nuclei)
Nucleus-orbit integrals                   ...  NO (   0 nuclei)
Geometric perturbations                   ...  NO (   6 nuclei)

Choice of electric origin   ... Center of mass
Position of electric origin ... ( -4.4388,  1.0981, -0.3528) 
Choice of magnetic origin   ... GIAO
Position of magnetic origin ... (  0.0000,  0.0000,  0.0000) 

Calculating integrals                     ... Electric Dipole (Length)     done (  0.0 sec)

Property integrals calculated in   0.0 sec

Maximum memory used throughout the entire PROPINT-calculation: 7.4 MB

-------------------------   --------------------
FINAL SINGLE POINT ENERGY     -3073.451081689231
-------------------------   --------------------

------------------------------------------------------------------------------
                         ORCA SCF GRADIENT CALCULATION
------------------------------------------------------------------------------

Nuc. rep. gradient        (SHARK) ... done (  0.0 sec)
HCore & Overlap gradient  (SHARK) ... done (  0.0 sec)
Split-RIJ-J gradient      (SHARK) ... done (  0.3 sec)
COSX-gradient                     ... done (  6.2 sec)
XC gradient                       ... done (  0.6 sec)

------------------
CARTESIAN GRADIENT
------------------

   1   C   :    0.054765386   -0.053505000   -0.021566517
   2   H   :    0.027527140   -0.077117749    0.003960661
   3   Br  :   -0.161139066    0.254019883   -0.016756746
   4   H   :    0.031872037   -0.040365279    0.008618345
   5   H   :    0.004325488   -0.001715314   -0.007561815
   6   Cl  :    0.042649016   -0.081316540    0.033306072

Difference to translation invariance:
           :    0.0000000001    0.0000000001    0.0000000000

Difference to rotation invariance:
           :   -0.0000505455   -0.0000214726    0.0000181874

Norm of the Cartesian gradient     ...    0.3408215324
RMS gradient                       ...    0.0803324056
MAX gradient                       ...    0.2540198826

-------
TIMINGS
-------

Total SCF gradient time     ....        7.083 sec

Densities                   ....       0.000 sec  (  0.0%)
One electron gradient       ....       0.027 sec  (  0.4%)
RI-J Coulomb gradient       ....       0.336 sec  (  4.7%)
COSX gradient               ....       6.150 sec  ( 86.8%)
XC gradient                 ....       0.569 sec  (  8.0%)

Maximum memory used throughout the entire SCFGRAD-calculation: 10.9 MB
------------------------------------------------------------------------------
                         ORCA GEOMETRY RELAXATION STEP
------------------------------------------------------------------------------

Reading the OPT-File                    .... done
Getting information on internals        .... done
Copying old internal coords+grads       .... done
Making the new internal coordinates     .... (2022 redundants) done
Validating the new internal coordinates .... (2022 redundants) done
Calculating the B-matrix                .... done
Calculating the G,G- and P matrices     .... done
Transforming gradient to internals      .... done
Projecting the internal gradient        .... done
Number of atoms                         ....   6
Number of internal coordinates          ....  24
Current Energy                          .... -3073.451081689 Eh
Current gradient norm                   ....     0.340821532 Eh/bohr
Maximum allowed component of the step   ....  0.300
Current trust radius                    ....  0.300
Evaluating the initial hessian          ....  (Almloef) done
Projecting the Hessian                  .... done
Forming the augmented Hessian           .... done
Diagonalizing the augmented Hessian     .... done
Last element of RFO vector              ....  0.823892375
Lowest eigenvalues of augmented Hessian:
 -0.176881663  0.067219450  0.113858371  0.189127882  0.226538380
Length of the computed step             ....  0.687888740
Warning: the length of the step is outside the trust region - taking restricted step instead
The input lambda is                     ....     0.065733
   iter:   5  x=    0.057261  g= 3411.242127 f(x)=    13.302729
   iter:  10  x=   -0.301070  g=    3.047466 f(x)=     0.437854
   iter:  15  x=   -0.658425  g=    0.209270 f(x)=     0.000015
The output lambda is                    ....    -0.658425 (17 iterations)
The final length of the internal step   ....  0.300000000
Converting the step to Cartesian space:
 Initial RMS(Int)=    0.0612372436
Transforming coordinates:
 Iter   0:  RMS(Cart)=    0.0620253878 RMS(Int)=    0.0614299142
done
Storing new coordinates                 .... done

                                .--------------------.
          ----------------------|Geometry convergence|-------------------------
          Item                value                   Tolerance       Converged
          ---------------------------------------------------------------------
          RMS gradient        0.0530783320            0.0001000000      NO
          MAX gradient        0.1881325842            0.0003000000      NO
          RMS step            0.0612372436            0.0020000000      NO
          MAX step            0.2220629584            0.0040000000      NO
          ........................................................
          Max(Bonds)      0.1175      Max(Angles)    3.33
          Max(Dihed)        1.13      Max(Improp)    0.00
          ---------------------------------------------------------------------

The optimization has not yet converged - more geometry cycles are needed


    ---------------------------------------------------------------------------
                         Redundant Internal Coordinates
                            (Angstroem and degrees)

        Definition                    Value    dE/dq     Step     New-Value
    ----------------------------------------------------------------------------
     1. B(H   1,C   0)                1.0922 -0.009765  0.0061    1.0983   
     2. B(Br  2,H   1)                1.6455 -0.114106  0.0746    1.7201   
     3. B(Br  2,C   0)                2.0572 -0.188133  0.1175    2.1747   
     4. B(H   3,C   0)                1.0922  0.017158 -0.0089    1.0833   
     5. B(H   4,C   0)                1.0922 -0.008535  0.0044    1.0966   
     6. B(Cl  5,C   0)                1.7669 -0.096614  0.0506    1.8176   
     7. A(H   4,C   0,Cl  5)          109.08  0.015312   -0.90    108.18   
     8. A(H   1,C   0,Br  2)           52.79  0.021744   -1.30     51.50   
     9. A(H   1,C   0,H   3)          109.86 -0.024160    1.46    111.32   
    10. A(Br  2,C   0,H   3)           63.76 -0.047426    2.89     66.65   
    11. A(H   1,C   0,H   4)          109.86  0.002705   -0.18    109.68   
    12. A(Br  2,C   0,H   4)          102.44  0.001246   -0.13    102.31   
    13. A(H   3,C   0,H   4)          109.86  0.002776   -0.14    109.72   
    14. A(H   1,C   0,Cl  5)          109.08 -0.023693    1.30    110.38   
    15. A(Br  2,C   0,Cl  5)          147.96 -0.015285    0.92    148.88   
    16. A(H   3,C   0,Cl  5)          109.08  0.027337   -1.56    107.52   
    17. A(C   0,H   1,Br  2)           95.29 -0.051931    3.33     98.62   
    18. A(C   0,Br  2,H   1)           31.91  0.030188   -2.03     29.88   
    19. D(Br  2,H   1,C   0,Cl  5)   -149.72  0.013081   -0.90   -150.62   
    20. D(Br  2,H   1,C   0,H   3)    -30.20  0.017463   -1.13    -31.33   
    21. D(Br  2,H   1,C   0,H   4)     90.76  0.007219   -0.48     90.28   
    22. D(H   1,Br  2,C   0,Cl  5)     63.94  0.012621   -1.06     62.88   
    23. D(H   1,Br  2,C   0,H   4)   -105.62 -0.002854    0.16   -105.47   
    24. D(H   1,Br  2,C   0,H   3)    148.17 -0.001298    0.00    148.17   
    ----------------------------------------------------------------------------

Geometry step timings:
Preparation and reading OPT file:      0.000 s (12.163 %)
Internal coordinates            :      0.000 s ( 2.768 %)
B/P matrices and projection     :      0.000 s (13.474 %)
Hessian update/contruction      :      0.000 s (19.738 %)
Making the step                 :      0.000 s (15.586 %)
Converting the step to Cartesian:      0.000 s ( 3.569 %)
Storing new data                :      0.000 s ( 2.840 %)
Checking convergence            :      0.000 s ( 0.146 %)
Final printing                  :      0.000 s (29.425 %)
Total time                      :      0.001 s

Time for energy+gradient        :     18.043 s
Time for complete geometry iter :     18.086 s

         *************************************************************
         *                GEOMETRY OPTIMIZATION CYCLE   2            *
         *************************************************************
---------------------------------
CARTESIAN COORDINATES (ANGSTROEM)
---------------------------------
  C     -2.964097    1.191397    0.059031
  H     -1.866120    1.182138    0.061731
  Br    -1.623528   -0.520426    0.016559
  H     -3.363395    0.346909   -0.489507
  H     -3.336024    1.171764    1.090497
  Cl    -3.583336    2.702828   -0.738320

----------------------------
CARTESIAN COORDINATES (A.U.)
----------------------------
  NO LB      ZA    FRAG     MASS         X           Y           Z
   0 C     6.0000    0    12.011   -5.601331    2.251414    0.111552
   1 H     1.0000    0     1.008   -3.526455    2.233916    0.116655
   2 Br   35.0000    0    79.900   -3.068024   -0.983463    0.031291
   3 H     1.0000    0     1.008   -6.355896    0.655563   -0.925033
   4 H     1.0000    0     1.008   -6.304172    2.214313    2.060740
   5 Cl   17.0000    0    35.453   -6.771523    5.107605   -1.395223

--------------------------------
INTERNAL COORDINATES (ANGSTROEM)
--------------------------------
 C      0   0   0     0.000000000000     0.00000000     0.00000000
 H      1   0   0     1.098019604576     0.00000000     0.00000000
 Br     2   1   0     1.720352853392    98.58567832     0.00000000
 H      1   2   3     1.083278409104   111.30046087   328.68642662
 H      1   2   3     1.096648441371   109.67422439    90.27953832
 Cl     1   2   3     1.817594304963   110.41207665   209.39322120

---------------------------
INTERNAL COORDINATES (A.U.)
---------------------------
 C      0   0   0     0.000000000000     0.00000000     0.00000000
 H      1   0   0     2.074956342325     0.00000000     0.00000000
 Br     2   1   0     3.250995746621    98.58567832     0.00000000
 H      1   2   3     2.047099519997   111.30046087   328.68642662
 H      1   2   3     2.072365219383   109.67422439    90.27953832
 Cl     1   2   3     3.434755458954   110.41207665   209.39322120

------------------------------------------------------------------------------
                   ___                                                        
                  /   \      - P O W E R E D   B Y -                         
                 /     \                                                     
                 |  |  |   _    _      __       _____    __    __             
                 |  |  |  | |  | |    /  \     |  _  \  |  |  /  |          
                  \  \/   | |  | |   /    \    | | | |  |  | /  /          
                 / \  \   | |__| |  /  /\  \   | |_| |  |  |/  /          
                |  |  |   |  __  | /  /__\  \  |    /   |      \           
                |  |  |   | |  | | |   __   |  |    \   |  |\   \          
                \     /   | |  | | |  |  |  |  | |\  \  |  | \   \       
                 \___/    |_|  |_| |__|  |__|  |_| \__\ |__|  \__/        
                                                                              
                      - O R C A' S   B I G   F R I E N D -                    
                                      &                                       
                       - I N T E G R A L  F E E D E R -                       
                                                                              
 v1 FN, 2020, v2 2021, v3 2022-2024                                           
------------------------------------------------------------------------------


----------------------
SHARK INTEGRAL PACKAGE
----------------------

Number of atoms                             ...      6
Number of basis functions                   ...     79
Number of shells                            ...     35
Maximum angular momentum                    ...      2
Integral batch strategy                     ... SHARK/LIBINT Hybrid
RI-J (if used) integral strategy            ... SPLIT-RIJ (Revised 2003 algorithm where possible)
Printlevel                                  ...      1
Contraction scheme used                     ... SEGMENTED contraction
Prescreening option                         ... SCHWARTZ
   Thresh                                   ... 2.500e-11
   Tcut                                     ... 2.500e-12
   Tpresel                                  ... 2.500e-12 
Coulomb Range Separation                    ... NOT USED
Exchange Range Separation                   ... NOT USED
Multipole approximations                    ... NOT USED
Finite Nucleus Model                        ... NOT USED
CABS basis                                  ... NOT available
Auxiliary Coulomb fitting basis             ... AVAILABLE
   # of basis functions in Aux-J            ...    191
   # of shells in Aux-J                     ...     65
   Maximum angular momentum in Aux-J        ...      4
Auxiliary J/K fitting basis                 ... NOT available
Auxiliary Correlation fitting basis         ... NOT available
Auxiliary 'external' fitting basis          ... NOT available

Checking pre-screening integrals            ... done (  0.0 sec) Dimension = 35
Check shell pair data                       ... done (  0.0 sec)
Shell pair information
Shell pair cut-off parameter TPreSel        ...   2.5e-12
Total number of shell pairs                 ...       630
Shell pairs after pre-screening             ...       595
Total number of primitive shell pairs       ...      2935
Primitive shell pairs kept                  ...      2184
          la=0 lb=0:    162 shell pairs
          la=1 lb=0:    204 shell pairs
          la=1 lb=1:     75 shell pairs
          la=2 lb=0:     83 shell pairs
          la=2 lb=1:     56 shell pairs
          la=2 lb=2:     15 shell pairs

Calculating one electron integrals          ... done (  0.0 sec)
Calculating RI/J V-Matrix + Cholesky decomp.... done (  0.0 sec)
Calculating Nuclear repulsion               ... done (  0.0 sec) ENN=    210.491492848270 Eh

Diagonalization of the overlap matrix:
Smallest eigenvalue                        ... 1.013e-02
Time for diagonalization                   ...    0.001 sec
Threshold for overlap eigenvalues          ... 1.000e-07
Number of eigenvalues below threshold      ... 0
Time for construction of square roots      ...    0.000 sec
Total time needed                          ...    0.001 sec

-------------------
DFT GRID GENERATION
-------------------

General Integration Accuracy     IntAcc      ... 4.388
Radial Grid Type                 RadialGrid  ... OptM3 with GC (2021)
Angular Grid (max. ang.)         AngularGrid ... 4 (Lebedev-302)
Angular grid pruning method      GridPruning ... 4 (adaptive)
Weight generation scheme         WeightScheme... mBecke (2022)
Basis function cutoff            BFCut       ... 1.0000e-11
Integration weight cutoff        WCut        ... 1.0000e-14
Partially contracted basis set               ... off
Rotationally invariant grid construction     ... off
Angular grids for H and He will be reduced by one unit
Core-polarized basis detected: some atoms will have their core
                               angular grid increased.

Total number of grid points                  ...    34528
Total number of batches                      ...      544
Average number of points per batch           ...       63
Average number of grid points per atom       ...     5755

--------------------
COSX GRID GENERATION
--------------------

GRIDX 1
-------
General Integration Accuracy     IntAcc      ... 3.816
Radial Grid Type                 RadialGrid  ... OptM3 with GC (2021)
Angular Grid (max. ang.)         AngularGrid ... 1 (Lebedev-50)
Angular grid pruning method      GridPruning ... 4 (adaptive)
Weight generation scheme         WeightScheme... mBecke (2022)
Basis function cutoff            BFCut       ... 1.0000e-11
Integration weight cutoff        WCut        ... 1.0000e-14
Partially contracted basis set               ... on
Rotationally invariant grid construction     ... off
Angular grids for H and He will be reduced by one unit
Core-polarized basis detected: some atoms will have their core
                               angular grid increased.

Total number of grid points                  ...    10208
Total number of batches                      ...       83
Average number of points per batch           ...      122
Average number of grid points per atom       ...     1701
UseSFitting                                  ... on

GRIDX 2
-------
General Integration Accuracy     IntAcc      ... 4.020
Radial Grid Type                 RadialGrid  ... OptM3 with GC (2021)
Angular Grid (max. ang.)         AngularGrid ... 2 (Lebedev-110)
Angular grid pruning method      GridPruning ... 4 (adaptive)
Weight generation scheme         WeightScheme... mBecke (2022)
Basis function cutoff            BFCut       ... 1.0000e-11
Integration weight cutoff        WCut        ... 1.0000e-14
Partially contracted basis set               ... on
Rotationally invariant grid construction     ... off
Angular grids for H and He will be reduced by one unit
Core-polarized basis detected: some atoms will have their core
                               angular grid increased.

Total number of grid points                  ...    12381
Total number of batches                      ...      101
Average number of points per batch           ...      122
Average number of grid points per atom       ...     2064
UseSFitting                                  ... on

GRIDX 3
-------
General Integration Accuracy     IntAcc      ... 4.338
Radial Grid Type                 RadialGrid  ... OptM3 with GC (2021)
Angular Grid (max. ang.)         AngularGrid ... 3 (Lebedev-194)
Angular grid pruning method      GridPruning ... 4 (adaptive)
Weight generation scheme         WeightScheme... mBecke (2022)
Basis function cutoff            BFCut       ... 1.0000e-11
Integration weight cutoff        WCut        ... 1.0000e-14
Partially contracted basis set               ... on
Rotationally invariant grid construction     ... off
Angular grids for H and He will be reduced by one unit
Core-polarized basis detected: some atoms will have their core
                               angular grid increased.

Total number of grid points                  ...    20465
Total number of batches                      ...      162
Average number of points per batch           ...      126
Average number of grid points per atom       ...     3411
UseSFitting                                  ... on
Initializing property integral containers    ... done (  0.0 sec)

SHARK setup successfully completed in   0.5 seconds

Maximum memory used throughout the entire STARTUP-calculation: 16.7 MB
Occupation numbers will be reassigned to an Aufbau configuration
             **** ENERGY FILE WAS UPDATED (product_opt.en.tmp) ****
Finished Guess after   0.1 sec
Maximum memory used throughout the entire GUESS-calculation: 7.3 MB
----------------------------------------D-I-I-S--------------------------------------------
Iteration    Energy (Eh)           Delta-E    RMSDP     MaxDP     DIISErr   Damp  Time(sec)
-------------------------------------------------------------------------------------------
               ***  Starting incremental Fock matrix formation  ***
    1    -3073.5124906540636402     0.00e+00  1.25e-03  2.54e-02  2.68e-02  0.700   0.9
    2    -3073.5135058456721708    -1.02e-03  1.12e-03  2.04e-02  1.88e-02  0.700   0.7
                               ***Turning on AO-DIIS***
    3    -3073.5142975671574277    -7.92e-04  8.89e-04  1.41e-02  1.31e-02  0.700   0.6
    4    -3073.5148745230076202    -5.77e-04  2.17e-03  2.66e-02  9.19e-03  0.000   0.6
                              *** Initializing SOSCF ***
---------------------------------------S-O-S-C-F--------------------------------------
Iteration    Energy (Eh)           Delta-E    RMSDP     MaxDP     MaxGrad    Time(sec)
--------------------------------------------------------------------------------------
    5    -3073.5163077679030721    -1.43e-03  2.65e-04  5.49e-03  6.41e-04     0.6
               *** Restarting incremental Fock matrix formation ***
    6    -3073.5163179436913197    -1.02e-05  3.53e-04  7.99e-03  4.08e-04     0.9
    7    -3073.5163208350008972    -2.89e-06  1.97e-04  4.88e-03  3.14e-04     0.7
    8    -3073.5163215079587644    -6.73e-07  9.78e-05  2.30e-03  1.57e-04     0.7
    9    -3073.5163218400798542    -3.32e-07  2.55e-06  3.13e-05  1.52e-05     0.8
   10    -3073.5163218396519369     4.28e-10  1.68e-06  3.68e-05  9.15e-06     0.6
                 **** Energy Check signals convergence ****

               *****************************************************
               *                     SUCCESS                       *
               *           SCF CONVERGED AFTER  10 CYCLES          *
               *****************************************************

Recomputing exchange energy using gridx3       ... done (    1.158 sec)
Old exchange energy                            :    -24.747291757 Eh
New exchange energy                            :    -24.747300753 Eh
Exchange energy change after final integration :     -0.000008996 Eh
Total energy after final integration           :  -3073.516330836 Eh
             **** ENERGY FILE WAS UPDATED (product_opt.en.tmp) ****

----------------
TOTAL SCF ENERGY
----------------

Total Energy       :      -3073.51633083562228 Eh          -83634.63126 eV

Components:
Nuclear Repulsion  :        210.49149284826998 Eh            5727.76471 eV
Electronic Energy  :      -3284.00781468792229 Eh          -89362.39573 eV
One Electron Energy:      -4706.07675383383412 Eh         -128058.85886 eV
Two Electron Energy:       1422.06893914591205 Eh           38696.46312 eV

Virial components:
Potential Energy   :      -6143.87457276473378 Eh         -167183.32656 eV
Kinetic Energy     :       3070.35824192911150 Eh           83548.69530 eV
Virial Ratio       :          2.00102857342944

DFT components:
N(Alpha)           :       30.999996353850 electrons
N(Beta)            :       30.999996353850 electrons
N(Total)           :       61.999992707701 electrons
E(X)               :      -98.406932360423 Eh       
E(C)               :       -3.182387655986 Eh       
E(XC)              :     -101.589320016409 Eh       

---------------
SCF CONVERGENCE
---------------

  Last Energy change         ...   -4.2792e-10  Tolerance :   1.0000e-08
  Last MAX-Density change    ...    3.6756e-05  Tolerance :   1.0000e-07
  Last RMS-Density change    ...    1.6793e-06  Tolerance :   5.0000e-09
  Last DIIS Error            ...    6.4115e-04  Tolerance :   5.0000e-07
  Last Orbital Gradient      ...    9.1544e-06  Tolerance :   1.0000e-05
  Last Orbital Rotation      ...    7.6351e-06  Tolerance :   1.0000e-05


Total SCF time: 0 days 0 hours 0 min 8 sec 
Finished LeanSCF after   8.4 sec

Maximum memory used throughout the entire LEANSCF-calculation: 9.2 MB

------------------------------------------------------------------------------
                         ORCA PROPERTY INTEGRAL CALCULATIONS
------------------------------------------------------------------------------

GBWName                                   ... product_opt.gbw
Number of atoms                           ...      6
Number of basis functions                 ...     79
Max core memory                           ...   1024 MB

Dipole integrals                          ... YES
Quadrupole integrals                      ...  NO
Linear momentum integrals                 ...  NO
Angular momentum integrals                ...  NO
Higher moments length integrals           ...  NO
Higher moments velocity integrals         ...  NO
Kinetic energy integrals                  ...  NO
GIAO right hand sides                     ...  NO
GIAO dipole derivative integrals          ...  NO
SOC integrals                             ...  NO
EPR diamagnetic integrals (GIAO)          ...  NO
EPR gauge integrals                       ...  NO
Field gradient integrals                  ...  NO (   0 nuclei)
Spin-dipole/Fermi contact integrals       ...  NO (   0 nuclei)
Contact density integrals                 ...  NO (   0 nuclei)
Nucleus-orbit integrals                   ...  NO (   0 nuclei)
Geometric perturbations                   ...  NO (   6 nuclei)

Choice of electric origin   ... Center of mass
Position of electric origin ... ( -4.3624,  1.0330, -0.3402) 
Choice of magnetic origin   ... GIAO
Position of magnetic origin ... (  0.0000,  0.0000,  0.0000) 

Calculating integrals                     ... Electric Dipole (Length)     done (  0.0 sec)

Property integrals calculated in   0.0 sec

Maximum memory used throughout the entire PROPINT-calculation: 7.4 MB

-------------------------   --------------------
FINAL SINGLE POINT ENERGY     -3073.516330835622
-------------------------   --------------------

------------------------------------------------------------------------------
                         ORCA SCF GRADIENT CALCULATION
------------------------------------------------------------------------------

Nuc. rep. gradient        (SHARK) ... done (  0.0 sec)
HCore & Overlap gradient  (SHARK) ... done (  0.0 sec)
Split-RIJ-J gradient      (SHARK) ... done (  0.3 sec)
COSX-gradient                     ... done (  4.5 sec)
XC gradient                       ... done (  0.5 sec)

------------------
CARTESIAN GRADIENT
------------------

   1   C   :    0.039192182   -0.047324443   -0.017298806
   2   H   :    0.026249635   -0.057691931    0.006835236
   3   Br  :   -0.114132305    0.182611525   -0.013504965
   4   H   :    0.017167851   -0.023327900    0.008562296
   5   H   :    0.002764866   -0.001522805   -0.004081572
   6   Cl  :    0.028757771   -0.052744446    0.019487811

Difference to translation invariance:
           :    0.0000000002   -0.0000000000   -0.0000000000

Difference to rotation invariance:
           :   -0.0000207273   -0.0000173637   -0.0000811381

Norm of the Cartesian gradient     ...    0.2441764930
RMS gradient                       ...    0.0575529513
MAX gradient                       ...    0.1826115247

-------
TIMINGS
-------

Total SCF gradient time     ....        5.376 sec

Densities                   ....       0.000 sec  (  0.0%)
One electron gradient       ....       0.034 sec  (  0.6%)
RI-J Coulomb gradient       ....       0.295 sec  (  5.5%)
COSX gradient               ....       4.498 sec  ( 83.7%)
XC gradient                 ....       0.547 sec  ( 10.2%)

Maximum memory used throughout the entire SCFGRAD-calculation: 10.9 MB
------------------------------------------------------------------------------
                         ORCA GEOMETRY RELAXATION STEP
------------------------------------------------------------------------------

Reading the OPT-File                    .... done
Getting information on internals        .... done
Copying old internal coords+grads       .... done
Making the new internal coordinates     .... (2022 redundants) done
Validating the new internal coordinates .... (2022 redundants) done
Calculating the B-matrix                .... done
Calculating the G,G- and P matrices     .... done
Transforming gradient to internals      .... done
Projecting the internal gradient        .... done
Number of atoms                         ....   6
Number of internal coordinates          ....  24
Current Energy                          .... -3073.516330836 Eh
Current gradient norm                   ....     0.244176493 Eh/bohr
Maximum allowed component of the step   ....  0.300
Current trust radius                    ....  0.300
Updating the Hessian (BFGS)             .... done
Forming the augmented Hessian           .... done
Diagonalizing the augmented Hessian     .... done
Last element of RFO vector              ....  0.885428556
Lowest eigenvalues of augmented Hessian:
 -0.093099803  0.066989216  0.114617539  0.189219499  0.226098268
Length of the computed step             ....  0.524915879
Warning: the length of the step is outside the trust region - taking restricted step instead
The input lambda is                     ....     0.065989
   iter:   5  x=   -0.317941  g=    0.546114 f(x)=     0.042307
   iter:  10  x=   -0.343798  g=    0.304358 f(x)=     0.000000
The output lambda is                    ....    -0.343798 (10 iterations)
The final length of the internal step   ....  0.300000000
Converting the step to Cartesian space:
 Initial RMS(Int)=    0.0612372436
Transforming coordinates:
 Iter   0:  RMS(Cart)=    0.0595902916 RMS(Int)=    0.0613977018
done
Storing new coordinates                 .... done
The predicted energy change is          ....    -0.042335377
Previously predicted energy change      ....    -0.068531403
Actually observed energy change         ....    -0.065249146
Ratio of predicted to observed change   ....     0.952105804
New trust radius                        ....     0.450000000

                                .--------------------.
          ----------------------|Geometry convergence|-------------------------
          Item                value                   Tolerance       Converged
          ---------------------------------------------------------------------
          Energy change      -0.0652491464            0.0000050000      NO
          RMS gradient        0.0367315209            0.0001000000      NO
          MAX gradient        0.1315564270            0.0003000000      NO
          RMS step            0.0612372436            0.0020000000      NO
          MAX step            0.2218409807            0.0040000000      NO
          ........................................................
          Max(Bonds)      0.1174      Max(Angles)    3.11
          Max(Dihed)        1.21      Max(Improp)    0.00
          ---------------------------------------------------------------------

The optimization has not yet converged - more geometry cycles are needed


    ---------------------------------------------------------------------------
                         Redundant Internal Coordinates
                            (Angstroem and degrees)

        Definition                    Value    dE/dq     Step     New-Value
    ----------------------------------------------------------------------------
     1. B(H   1,C   0)                1.0980 -0.002757  0.0004    1.0985   
     2. B(Br  2,H   1)                1.7204 -0.085176  0.0819    1.8023   
     3. B(Br  2,C   0)                2.1747 -0.131556  0.1174    2.2921   
     4. B(H   3,C   0)                1.0833  0.007523 -0.0031    1.0802   
     5. B(H   4,C   0)                1.0966 -0.004749  0.0030    1.0997   
[...]
Nuclear contribution   :     -8.026298318      12.568863754      -2.771997535
                        -----------------------------------------
Total Dipole Moment    :     -0.813616682       1.273359327      -0.280912172
                        -----------------------------------------
Magnitude (a.u.)       :      1.536986575
Magnitude (Debye)      :      3.906709401



--------------------
Rotational spectrum 
--------------------
 
Rotational constants in cm-1:             5.222248             0.024592             0.024592 
Rotational constants in MHz :        156559.054415           737.249423           737.248083 

Dipole components along the rotational axes: 
x,y,z [a.u.] :     1.536985    -0.000504     0.001753 
x,y,z [Debye]:     3.906707    -0.001282     0.004455 

 

Dipole moment calculation done in   0.0 sec 

-----------
SCF HESSIAN
-----------

Occupied/Occupied contributions to the Hessian:
   => Occupied/Occupied contributions              ... done (  0.0 sec)
Perturbed density contributions to the Hessian:
   => Perturbed density contributions              ... done (  0.0 sec)
Explicit contributions to the Hessian:
   => Nuclear repulsion Hessian                    ... done (  0.0 sec)
   => HCore and overlap Hessian                    ... done (  0.2 sec)
   => RI-J Hessian                                 ... done (  0.4 sec)
   => COSX Hessian                                 ... done ( 20.7 sec)
   => XC-Hessian                                   ... done (  1.9 sec)
   => Explicit contributions done
Dipole derivatives                                 ... done (  0.0 sec)
Mass weighting the Hessian           ... done
Calculating normal modes             ... done
Scaling frequencies                  ... done

-----------------------
VIBRATIONAL FREQUENCIES
-----------------------

Scaling factor for frequencies =  1.000000000  (already applied!)

     0:       0.00 cm**-1
     1:       0.00 cm**-1
     2:       0.00 cm**-1
     3:       0.00 cm**-1
     4:       0.00 cm**-1
     5:       0.00 cm**-1
     6:      70.35 cm**-1
     7:      72.82 cm**-1
     8:      93.46 cm**-1
     9:     590.39 cm**-1
    10:     937.45 cm**-1
    11:     937.93 cm**-1
    12:    1277.25 cm**-1
    13:    1432.68 cm**-1
    14:    1432.90 cm**-1
    15:    3104.45 cm**-1
    16:    3232.36 cm**-1
    17:    3232.56 cm**-1


------------
NORMAL MODES
------------

These modes are the Cartesian displacements weighted by the diagonal matrix
M(i,i)=1/sqrt(m[i]) where m[i] is the mass of the displaced atom
Thus, these vectors are normalized but *not* orthogonal

                  0          1          2          3          4          5    
      0       0.000000   0.000000   0.000000   0.000000   0.000000   0.000000
      1       0.000000   0.000000   0.000000   0.000000   0.000000   0.000000
      2       0.000000   0.000000   0.000000   0.000000   0.000000   0.000000
      3       0.000000   0.000000   0.000000   0.000000   0.000000   0.000000
      4       0.000000   0.000000   0.000000   0.000000   0.000000   0.000000
      5       0.000000   0.000000   0.000000   0.000000   0.000000   0.000000
      6       0.000000   0.000000   0.000000   0.000000   0.000000   0.000000
      7       0.000000   0.000000   0.000000   0.000000   0.000000   0.000000
      8       0.000000   0.000000   0.000000   0.000000   0.000000   0.000000
      9       0.000000   0.000000   0.000000   0.000000   0.000000   0.000000
     10       0.000000   0.000000   0.000000   0.000000   0.000000   0.000000
     11       0.000000   0.000000   0.000000   0.000000   0.000000   0.000000
     12       0.000000   0.000000   0.000000   0.000000   0.000000   0.000000
     13       0.000000   0.000000   0.000000   0.000000   0.000000   0.000000
     14       0.000000   0.000000   0.000000   0.000000   0.000000   0.000000
     15       0.000000   0.000000   0.000000   0.000000   0.000000   0.000000
     16       0.000000   0.000000   0.000000   0.000000   0.000000   0.000000
     17       0.000000   0.000000   0.000000   0.000000   0.000000   0.000000
                  6          7          8          9         10         11    
      0       0.177975  -0.278276   0.229930   0.350492  -0.082099  -0.049407
      1       0.175815  -0.123325  -0.370710  -0.553401  -0.037103  -0.050676
      2       0.296530   0.240137   0.074550   0.122068   0.067759  -0.087527
      3       0.168373  -0.206227   0.223566   0.276770  -0.287468  -0.059465
      4       0.308007  -0.392314  -0.360582  -0.288798   0.639272   0.295844
      5       0.346022   0.355040   0.070238   0.046041  -0.240051   0.132066
      6      -0.014272   0.021452  -0.143144   0.001362   0.000201   0.000115
      7      -0.012736   0.009576   0.225326  -0.002082   0.000084   0.000120
      8      -0.023074  -0.018553  -0.049126   0.000451  -0.000162   0.000205
      9       0.389028  -0.364574   0.216900   0.158866   0.226771   0.447963
     10      -0.019744  -0.110089  -0.355084  -0.369103  -0.055451  -0.569092
     11       0.424109   0.278388   0.068083   0.017634  -0.115291   0.255700
     12       0.107024  -0.469974   0.223527   0.184354   0.449578  -0.154416
     13       0.370592   0.040681  -0.362860  -0.323219  -0.408335   0.513668
     14       0.337904   0.264922   0.072361   0.152957   0.034764   0.026641
     15      -0.047022   0.075522   0.225826  -0.139440   0.016304   0.009824
     16      -0.049593   0.033327  -0.351557   0.220073   0.007391   0.010063
     17      -0.079962  -0.065084   0.079468  -0.048531  -0.013476   0.017410
                 12         13         14         15         16         17    
      0      -0.048393   0.058225   0.009884   0.022122  -0.079448   0.021700
      1       0.076125   0.032902   0.020772  -0.034617  -0.042588   0.033311
      2      -0.016812  -0.019185   0.065688   0.007726   0.035556   0.088405
      3       0.127871  -0.033045  -0.131333  -0.547535   0.771930  -0.041853
      4      -0.538023   0.277137  -0.250783  -0.116373   0.151074  -0.003081
      5       0.159052  -0.119955  -0.700726   0.142494  -0.195371   0.028168
      6      -0.000148   0.000198   0.000035   0.000047   0.000021  -0.000006
      7       0.000232   0.000112   0.000072  -0.000073   0.000012  -0.000009
      8      -0.000052  -0.000065   0.000226   0.000016  -0.000009  -0.000023
      9       0.393879  -0.286196   0.441535   0.226192   0.129011  -0.282721
     10      -0.354748  -0.236386  -0.034604   0.414589   0.262593  -0.533484
     11       0.222167   0.545228  -0.179782   0.329041   0.217939  -0.405390
     12       0.336496  -0.457076  -0.442078   0.058845   0.029234   0.070475
     13      -0.457969  -0.479752   0.008231   0.112520   0.084919   0.146585
     14      -0.083318  -0.169492   0.004635  -0.563181  -0.438838  -0.657813
     15      -0.007674   0.001901   0.000322  -0.000137   0.000423  -0.000115
     16       0.012091   0.001083   0.000681   0.000214   0.000226  -0.000177
     17      -0.002657  -0.000626   0.002140  -0.000048  -0.000189  -0.000469


-----------
IR SPECTRUM
-----------

 Mode   freq       eps      Int      T**2         TX        TY        TZ
       cm**-1   L/(mol*cm) km/mol    a.u.
----------------------------------------------------------------------------
  6:     70.35   0.000923    4.67  0.004095  ( 0.029825  0.028271  0.049053)
  7:     72.82   0.000925    4.67  0.003964  (-0.045328 -0.019832  0.038939)
  8:     93.46   0.002529   12.78  0.008443  ( 0.048308 -0.076420  0.016409)
  9:    590.39   0.040354  203.93  0.021330  ( 0.077043 -0.121159  0.026737)
 10:    937.45   0.000378    1.91  0.000126  ( 0.008036  0.003932 -0.006764)
 11:    937.93   0.000374    1.89  0.000125  ( 0.004856  0.005133  0.008638)
 12:   1277.25   0.000374    1.89  0.000091  (-0.004947  0.007995 -0.001750)
 13:   1432.68   0.000867    4.38  0.000189  (-0.011664 -0.006232  0.003740)
 14:   1432.90   0.000854    4.32  0.000186  (-0.001965 -0.004044 -0.012879)
 15:   3104.45   0.000984    4.97  0.000099  ( 0.005219 -0.008262  0.001843)
 16:   3232.36   0.000267    1.35  0.000026  (-0.004096 -0.002345  0.001871)
 17:   3232.56   0.000277    1.40  0.000027  ( 0.001144  0.001793  0.004709)

* The epsilon (eps) is given for a Dirac delta lineshape.
** The dipole moment derivative (T) already includes vibrational overlap.

The first frequency considered to be a vibration is 6
The total number of vibrations considered is 12


--------------------------
THERMOCHEMISTRY AT 298.15K
--------------------------

Temperature         ...   298.15 K
Pressure            ...     1.00 atm
Total Mass          ...   130.39 AMU
Quasi RRHO          ...     True
Cut-Off Frequency   ...     1.00 cm^-1

Throughout the following assumptions are being made:
  (1) The electronic state is orbitally nondegenerate
  (2) There are no thermally accessible electronically excited states
  (3) Hindered rotations indicated by low frequency modes are not
      treated as such but are treated as vibrations and this may
      cause some error
  (4) All equations used are the standard statistical mechanics
      equations for an ideal gas
  (5) All vibrations are strictly harmonic

freq.      70.35  E(vib)   ...       0.50 
freq.      72.82  E(vib)   ...       0.49 
freq.      93.46  E(vib)   ...       0.47 
freq.     590.39  E(vib)   ...       0.10 
freq.     937.45  E(vib)   ...       0.03 
freq.     937.93  E(vib)   ...       0.03 
freq.    1277.25  E(vib)   ...       0.01 
freq.    1432.68  E(vib)   ...       0.00 
freq.    1432.90  E(vib)   ...       0.00 
freq.    3104.45  E(vib)   ...       0.00 
freq.    3232.36  E(vib)   ...       0.00 
freq.    3232.56  E(vib)   ...       0.00 

------------
INNER ENERGY
------------

The inner energy is: U= E(el) + E(ZPE) + E(vib) + E(rot) + E(trans)
    E(el)   - is the total energy from the electronic structure calculation
              = E(kin-el) + E(nuc-el) + E(el-el) + E(nuc-nuc)
    E(ZPE)  - the the zero temperature vibrational energy from the frequency calculation
    E(vib)  - the the finite temperature correction to E(ZPE) due to population
              of excited vibrational states
    E(rot)  - is the rotational thermal energy
    E(trans)- is the translational thermal energy

Summary of contributions to the inner energy U:
Electronic energy                ...  -3073.65266959 Eh
Zero point energy                ...      0.03739520 Eh      23.47 kcal/mol
Thermal vibrational correction   ...      0.00261247 Eh       1.64 kcal/mol
Thermal rotational correction    ...      0.00141627 Eh       0.89 kcal/mol
Thermal translational correction ...      0.00141627 Eh       0.89 kcal/mol
-----------------------------------------------------------------------
Total thermal energy                  -3073.60982938 Eh


Summary of corrections to the electronic energy:
(perhaps to be used in another calculation)
Total thermal correction                  0.00544501 Eh       3.42 kcal/mol
Non-thermal (ZPE) correction              0.03739520 Eh      23.47 kcal/mol
-----------------------------------------------------------------------
Total correction                          0.04284021 Eh      26.88 kcal/mol


--------
ENTHALPY
--------

The enthalpy is H = U + kB*T
                kB is Boltzmann's constant
Total thermal energy              ...  -3073.60982938 Eh 
Thermal Enthalpy correction       ...      0.00094421 Eh       0.59 kcal/mol
-----------------------------------------------------------------------
Total Enthalpy                    ...  -3073.60888517 Eh


Note: Only C1 symmetry has been detected, increase convergence thresholds 
      if your molecule has a higher symmetry. Symmetry factor of 1.0 is   
      used for the rotational entropy correction. 
 

Note: Rotational entropy computed according to Herzberg 
Infrared and Raman Spectra, Chapter V,1, Van Nostrand Reinhold, 1945 
Point Group:  C1, Symmetry Number:   1  
Rotational constants in cm-1:     5.222248     0.024592     0.024592 

Vibrational entropy computed according to the QRRHO of S. Grimme
Chem.Eur.J. 2012 18 9955 using a reference frequency of 100.0 cm-1


-------
ENTROPY
-------

The entropy contributions are T*S = T*(S(el)+S(vib)+S(rot)+S(trans))
     S(el)   - electronic entropy
     S(vib)  - vibrational entropy
     S(rot)  - rotational entropy
     S(trans)- translational entropy
The entropies will be listed as multiplied by the temperature to get
units of energy

Electronic entropy                ...      0.00000000 Eh      0.00 kcal/mol
Vibrational entropy               ...      0.00510099 Eh      3.20 kcal/mol
Rotational entropy                ...      0.01222899 Eh      7.67 kcal/mol
Translational entropy             ...      0.01924704 Eh     12.08 kcal/mol
-----------------------------------------------------------------------
Final entropy term                ...      0.03657702 Eh     22.95 kcal/mol

In case the symmetry of your molecule has not been determined correctly
or in case you have a reason to use a different symmetry number we print 
out the resulting rotational entropy values for sn=1,12:

 non-linear molecules -----------------------------------
|  sn= 1 | S(rot)=       0.01222899 Eh      7.67 kcal/mol|
|  sn= 2 | S(rot)=       0.01157453 Eh      7.26 kcal/mol|
|  sn= 3 | S(rot)=       0.01119170 Eh      7.02 kcal/mol|
|  sn= 4 | S(rot)=       0.01092007 Eh      6.85 kcal/mol|
|  sn= 5 | S(rot)=       0.01070939 Eh      6.72 kcal/mol|
|  sn= 6 | S(rot)=       0.01053724 Eh      6.61 kcal/mol|
|  sn= 7 | S(rot)=       0.01039169 Eh      6.52 kcal/mol|
|  sn= 8 | S(rot)=       0.01026562 Eh      6.44 kcal/mol|
|  sn= 9 | S(rot)=       0.01015441 Eh      6.37 kcal/mol|
|  sn=10 | S(rot)=       0.01005493 Eh      6.31 kcal/mol|
|  sn=11 | S(rot)=       0.00996494 Eh      6.25 kcal/mol|
|  sn=12 | S(rot)=       0.00988278 Eh      6.20 kcal/mol|
 linear molecules ---------------------------------------
|  Dinfh | S(rot)=       0.00882431 Eh      5.54 kcal/mol|
|  Cinfv | S(rot)=       0.00947877 Eh      5.95 kcal/mol|
 --------------------------------------------------------


-------------------
GIBBS FREE ENERGY
-------------------

The Gibbs free energy is G = H - T*S

Total enthalpy                    ...  -3073.60888517 Eh 
Total entropy correction          ...     -0.03657702 Eh    -22.95 kcal/mol
-----------------------------------------------------------------------
Final Gibbs free energy         ...  -3073.64546219 Eh

For completeness - the Gibbs free energy minus the electronic energy
G-E(el)                           ...      0.00720740 Eh      4.52 kcal/mol


Maximum memory used throughout the entire PROP-calculation: 31.2 MB

--------------------------------
SUGGESTED CITATIONS FOR THIS RUN
--------------------------------

Below you find a list of papers that are relevant to this ORCA run
We neither can nor want to force you to cite these papers, but we appreciate if you do
You receive ORCA, which is the product of decades of hard work by many enthusiastic individuals, for free
The only thing we kindly ask in return is that you cite our papers,
We deeply appreciate it, if you show your appreciation for ORCA by not just citing the generic ORCA reference.

Please note that relegating all ORCA citations to the supporting information does *not* help us.
SI sections are not indexed - citations you put there will not count into any citation statistics
But we need these citations in order to attract the funding resources that allow us to do what we are doing

Therefore, if you are a happy ORCA user, please consider citing a few of the papers listed below in the main body of your paper

In addition to the list printed below, the program has created the file product_opt.bibtex that contains the list in bibtex format
You can import this file easily into all common literature databanks and citation aid programs


List of essential papers. We consider these as the minimum necessary citations

  1. Neese,F.
     Software update: the ORCA program system, version 5.0
     WIRES Comput. Molec. Sci., 2022 12(1)e1606
     doi.org/10.1002/wcms.1606

List of papers to cite with high priority. The work reported in these papers was absolutely
necessary for this run to complete.
Our perspective: the developers of density functionals and basis sets usually get cited in chemistry papers
Good! But without the algorithms to do something with them, the functionals or basis sets would not do anything.
Hence, in our opinion, the algorithm design and method developments papers are equally worthy of getting cited

  1. Neese,F.
     An improvement of the resolution of the identity approximation for the formation of the Coulomb matrix
     J. Comp. Chem., 2003 24(14)1740-1747
     doi.org/10.1002/jcc.10318
  2. Neese,F.; Wennmohs,F.; Hansen,A.; Becker,U.
     Efficient, approximate and parallel Hartree-Fock and hybrid DFT calculations. A 'chain-of-spheres' algorithm for the Hartree-Fock exchange
     Chem. Phys., 2009 356(1-3)98-109
     doi.org/10.1016/j.chemphys.2008.10.036
  3. Bykov,D.; Petrenko,T.; Izsak,R.; Kossmann,S.; Becker,U.; Valeev,E.; Neese,F.
     Efficient implementation of the analytic second derivatives of Hartree-Fock and hybrid DFT energies: a detailed analysis of different approximations
     Molec. Phys., 2015 113 1961-1977
     doi.org/10.1080/00268976.2015.1025114
  4. Helmich-Paris,B.; de Souza,B.; Neese,F.; Izsák,R.
     An improved chain of spheres for exchange algorithm
     J. Chem. Phys., 2021 155 104109
     doi.org/doi: 10.1063/5.0058766.
  5. Neese,F.
     The SHARK Integral Generation and Digestion System
     J. Comp. Chem., 2022  1-16
     doi.org/10.1002/jcc.26942

List of suggested additional citations. These are papers that are important in the 'surrounding' of 
of this run, or papers that preceded the highly important papers. If you like your results we are grateful for a citation.

  1. Izsak,R.; Neese,F.
     An overlap fitted chain of spheres exchange method
     J. Chem. Phys., 2011 135 144105
     doi.org/10.1063/1.3646921
  2. Izsak,R.; Hansen,A.; Neese,F.
     The resolution of identity and chain of spheres approximations for the LPNO-CCSD singles Fock term
     Molec. Phys., 2012 110 2413-2417
     doi.org/10.1080/00268976.2012.687466
  3. Neese,F.
     The ORCA program system
     WIRES Comput. Molec. Sci., 2012 2(1)73-78
     doi.org/10.1002/wcms.81
  4. Izsak,R.; Neese,F.; Klopper,W.
     Robust fitting techniques in the chain of spheres approximation to the Fock exchange: The role of the complementary space
     J. Chem. Phys., 2013 139 
     doi.org/10.1063/1.4819264
  5. Neese,F.
     Software update: the ORCA program system, version 4.0
     WIRES Comput. Molec. Sci., 2018 8(1)1-6
     doi.org/10.1002/wcms.1327
  6. Neese,F.; Wennmohs,F.; Becker,U.; Riplinger,C.
     The ORCA quantum chemistry program package
     J. Chem. Phys., 2020 152 Art. No. L224108
     doi.org/10.1063/5.0004608

List of optional additional citations

  1. Neese,F.
     Approximate second-order SCF convergence for spin unrestricted wavefunctions
     Chem. Phys. Lett., 2000 325(1-3)93-98
     doi.org/10.1016/s0009-2614(00)00662-x

Timings for individual modules:

Sum of individual times          ...      369.437 sec (=   6.157 min)
Startup calculation              ...       14.097 sec (=   0.235 min)   3.8 %
SCF iterations                   ...      188.111 sec (=   3.135 min)  50.9 %
Property integrals               ...        7.581 sec (=   0.126 min)   2.1 %
SCF Response                     ...        3.664 sec (=   0.061 min)   1.0 %
Property calculations            ...       23.277 sec (=   0.388 min)   6.3 %
SCF Gradient evaluation          ...      132.615 sec (=   2.210 min)  35.9 %
Geometry relaxation              ...        0.091 sec (=   0.002 min)   0.0 %
                             ****ORCA TERMINATED NORMALLY****
TOTAL RUN TIME: 0 days 0 hours 6 minutes 10 seconds 893 msec
