
                                 *****************
                                 * O   R   C   A *
                                 *****************

                                            #,                                       
                                            ###                                      
                                            ####                                     
                                            #####                                    
                                            ######                                   
                                           ########,                                 
                                     ,,################,,,,,                         
                               ,,#################################,,                 
                          ,,##########################################,,             
                       ,#########################################, ''#####,          
                    ,#############################################,,   '####,        
                  ,##################################################,,,,####,       
                ,###########''''           ''''###############################       
              ,#####''   ,,,,##########,,,,          '''####'''          '####       
            ,##' ,,,,###########################,,,                        '##       
           ' ,,###''''                  '''############,,,                           
         ,,##''                                '''############,,,,        ,,,,,,###''
      ,#''                                            '''#######################'''  
     '                                                          ''''####''''         
             ,#######,   #######,   ,#######,      ##                                
            ,#'     '#,  ##    ##  ,#'     '#,    #''#        ,####,   ,####,        
            ##       ##  ##   ,#'  ##            #'  '#       #'       #'  '#        
            ##       ##  #######   ##           ,######,      #####,   #    #        
            '#,     ,#'  ##    ##  '#,     ,#' ,#      #,     #,   #   #,  ,#        
             '#######'   ##     ##  '#######'  #'      '#     '####' # '####'        



                #########################################################
                #                        -***-                          #
                #          Department of theory and spectroscopy        #
                #                                                       #
                #                      Frank Neese                      #
                #                                                       #
                #     Directorship, Architecture, Infrastructure        #
                #                    SHARK, DRIVERS                     #
                #        Core code/Algorithms in most modules           #
                #                                                       #
                #        Max Planck Institute fuer Kohlenforschung      #
                #                Kaiser Wilhelm Platz 1                 #
                #                 D-45470 Muelheim/Ruhr                 #
                #                      Germany                          #
                #                                                       #
                #                  All rights reserved                  #
                #                        -***-                          #
                #########################################################


                         Program Version 6.0.1  -  RELEASE   -


 With contributions from (in alphabetic order):
[Max-Planck-Institut fuer Kohlenforschung]                               
  Daniel Aravena         : Magnetic Suceptibility                        
  Michael Atanasov       : Ab Initio Ligand Field Theory (pilot matlab implementation)
  Alexander A. Auer      : GIAO ZORA, VPT2 properties, NMR spectrum      
  Ute Becker             : All parallelization in ORCA, NUMFREQ, NUMCALC 
  Giovanni Bistoni       : ED, misc. LED, open-shell LED, HFLD           
  Martin Brehm           : Molecular dynamics                            
  Dmytro Bykov           : pre 5.0 version of the SCF Hessian            
  Marcos Casanova-Páez   : Triplet and SCS-CIS(D). UHF-(DLPNO)-IP/EA/STEOM-CCSD. UHF-CVS-IP/STEOM-CCSD   
  Vijay G. Chilkuri      : MRCI spin determinant printing, contributions to CSF-ICE 
  Pauline Colinet        : FMM embedding                                 
  Dipayan Datta          : RHF DLPNO-CCSD density                        
  Achintya Kumar Dutta   : EOM-CC, STEOM-CC                              
  Nicolas Foglia         : Exact transition moments, OPA infrastructure, MCD improvements    
  Dmitry Ganyushin       : Spin-Orbit,Spin-Spin,Magnetic field MRCI      
  Miquel Garcia-Rates    : C-PCM and meta-GGA Hessian, CCSD/C-PCM, Gaussian charge scheme 
  Tiago L. C. Gouveia    : GS-ROHF, GS-ROCIS                             
  Yang Guo               : DLPNO-NEVPT2, F12-NEVPT2, CIM, IAO-localization        
  Andreas Hansen         : Spin unrestricted coupled pair/coupled cluster methods 
  Ingolf Harden          : AUTO-CI MPn and infrastructure                
  Benjamin Helmich-Paris : MC-RPA, TRAH-(SCF,CASSCF), AVAS, COSX integrals, SCF dyn. polar. 
  Lee Huntington         : MR-EOM, pCC                                   
  Robert Izsak           : Overlap fitted RIJCOSX, COSX-SCS-MP3, EOM     
  Riya Kayal             : Wick's Theorem for AUTO-CI, AUTO-CI UHF-CCSDT 
  Emily Kempfer          : AUTO-CI, RHF CISDT and CCSDT                  
  Christian Kollmar      : KDIIS, OOCD, Brueckner-CCSD(T), CCSD density, CASPT2, CASPT2-K, improved NEVPT2 
  Axel Koslowski         : Symmetry handling                             
  Simone Kossmann        : meta-GGA functionals, TD-DFT gradient, OOMP2, (MP2 Hessian; deprecated post 5.0) 
  Lucas Lang             : DCDCAS                                        
  Marvin Lechner         : AUTO-CI (C++ implementation), FIC-MRCC        
  Spencer Leger          : CASSCF response                               
  Dagmar Lenk            : GEPOL surface, SMD, ORCA-2-JSON               
  Dimitrios Liakos       : Extrapolation schemes; Compound Job, initial MDCI parallelization 
  Dimitrios Manganas     : Further ROCIS development; embedding schemes. LFT, Crystal Embedding 
  Dimitrios Pantazis     : SARC Basis sets                               
  Anastasios Papadopoulos: AUTO-CI, single reference methods and gradients 
  Taras Petrenko         : pre 6.0 DFT Hessian and TD-DFT gradient, (ASA, deprecated), ECA, 1-Electron XAS/XES, NRVS 
  Peter Pinski           : DLPNO-MP2, DLPNO-MP2 Gradient                 
  Christoph Reimann      : Effective Core Potentials                     
  Marius Retegan         : Local ZFS, SOC                                
  Christoph Riplinger    : Optimizer, TS searches, QM/MM, DLPNO-CCSD(T), (RO)-DLPNO pert. Triples 
  Michael Roemelt        : Original ROCIS implementation                 
  Masaaki Saitow         : Open-shell DLPNO-CCSD energy and density      
  Barbara Sandhoefer     : DKH picture change effects                    
  Kantharuban Sivalingam : CASSCF convergence/infrastructure, NEVPT2 and variants, FIC-MRCI 
  Bernardo de Souza      : ESD, SOC TD-DFT                               
  Georgi L. Stoychev     : AutoAux, RI-MP2 NMR, DLPNO-MP2 response, X2C  
  Van Anh Tran           : RI-MP2 g-tensors                              
  Willem Van den Heuvel  : Paramagnetic NMR                              
  Zikuan Wang            : NOTCH, Electric field optimization            
  Frank Wennmohs         : Technical directorship and infrastructure     
  Hang Xu                : AUTO-CI-Response properties                   
                                                                         
[FACCTs GmbH]                                                            
  Markus Bursch, Miquel Garcia-Rates, Christoph Riplinger, Bernardo de Souza, Georgi L. Stoychev 
                                                                 
  APM, Basis sets (HGBS, AHGBS, def-TZVP (Ac-Lr), def2-XVPD (La-Lu)), CI-OPT, improved COSX, DLPNO-Multilevel,           
  DOCKER, DRACO, updates on ESD, GOAT, IRC, LR-CPCM, MBIS, meta-GGA TD-DFT gradient, ML-optimized integration grids, 
  MM, NACMEs, nearIR, NEB, NEB-TS, NL-DFT gradient (VV10), 2- and 3-layer-ONIOM, interface openCOSMO-RS, QMMM,   
  Crystal-QMMM, SF, symmetry and pop. for TD-DFT, r2SCAN hybrids, SOLVATOR                                   
                                                                         
[Other institutions]                                                     
  V. Asgeirsson          : NEB                                           
  Christoph Bannwarth    : sTDA-DFT, sTD-DFT, PBEh-3c, B97-3c, D3        
  Sebastian Ehlert       : rSCAN, r2SCAN, r2SCAN-3c, D4, dhf basis sets  
  Marvin Friede          : D4 for Fr, Ra, Ac-Lr                          
  Lars Goerigk           : TD-DFT with DH, B97 family of functionals     
  Stefan Grimme          : VdW corrections, initial TS optimization, DFT functionals, gCP, sTDA/sTD-DF 
  Waldemar Hujo          : DFT-NL                                        
  H. Jonsson             : NEB                                           
  Holger Kruse           : gCP                                           
  Marcel Mueller         : wB97X-3c, vDZP basis set                      
  Hagen Neugebauer       : wr2SCAN                                       
  Tobias Risthaus        : range-separated hybrid DFT                    
  Lukas Wittmann         : regularized MP2, r2SCAN double-hybrids, wr2SCAN        
                                                                         
We gratefully acknowledge several colleagues who have allowed us to      
interface, adapt or use parts of their codes:                            
  Ed Valeev, F. Pavosevic, A. Kumar             : LibInt (2-el integral package), F12 methods 
  Garnet Chan, S. Sharma, J. Yang, R. Olivares  : DMRG                   
  Ulf Ekstrom                                   : XCFun DFT Library      
  Mihaly Kallay                                 : mrcc  (arbitrary order and MRCC methods)
  Frank Weinhold                                : gennbo (NPA and NBO analysis)           
  Simon Mueller                                 : openCOSMO-RS                            
  Christopher J. Cramer and Donald G. Truhlar   : smd solvation model                     
  S Lehtola, MJT Oliveira, MAL Marques          : LibXC Library                           
  Liviu Ungur et al                             : ANISO software                          


 Your calculation uses the libint2 library for the computation of 2-el integrals
 For citations please refer to: http://libint.valeyev.net

 Your ORCA version has been built with support for libXC version: 6.2.2
 For citations please refer to: https://libxc.gitlab.io

 This ORCA versions uses:
   CBLAS   interface :  Fast vector & matrix operations
   LAPACKE interface :  Fast linear algebra routines
   SCALAPACK package :  Parallel linear algebra routines
   Shared memory     :  Shared parallel matrices
   BLAS/LAPACK       :  OpenBLAS 0.3.27  USE64BITINT DYNAMIC_ARCH NO_AFFINITY Cooperlake SINGLE_THREADED
        Core in use  :  Cooperlake
   Copyright (c) 2011-2014, The OpenBLAS Project




***************************************
The coordinates will be read from file: reactant.xyz
***************************************


Warning: RI is on but no J-basis has been assigned. Assigning Def2/J (nothing to worry about!)
================================================================================

----- Orbital basis set information -----
Your calculation utilizes the basis: def2-SVP
   F. Weigend and R. Ahlrichs, Phys. Chem. Chem. Phys. 7, 3297 (2005).

----- AuxJ basis set information -----
Your calculation utilizes the auxiliary basis: def2/J
   F. Weigend, Phys. Chem. Chem. Phys. 8, 1057 (2006).

================================================================================
                                        WARNINGS
                       Please study these warnings very carefully!
================================================================================


WARNING: Geometry Optimization
  ===> : Switching off AutoStart
         For restart on a previous wavefunction, please use MOREAD

================================================================================
                                       INPUT FILE
================================================================================
NAME = reactant_opt.inp
|  1> ! Opt Freq B3LYP def2-SVP
|  2> * xyzfile -1 1 reactant.xyz
|  3> 
|  4>                          ****END OF INPUT****
================================================================================

                       *****************************
                       * Geometry Optimization Run *
                       *****************************

Geometry optimization settings:
Update method            Update   .... BFGS
Choice of coordinates    CoordSys .... (2022) Redundant Internals
Initial Hessian          InHess   .... Almloef's Model
Max. no of cycles        MaxIter  .... 50

Convergence Tolerances:
Energy Change            TolE     ....  5.0000e-06 Eh
Max. Gradient            TolMAXG  ....  3.0000e-04 Eh/bohr
RMS Gradient             TolRMSG  ....  1.0000e-04 Eh/bohr
Max. Displacement        TolMAXD  ....  4.0000e-03 bohr
RMS Displacement         TolRMSD  ....  2.0000e-03 bohr
Strict Convergence                .... False

------------------------------------------------------------------------------
                        ORCA OPTIMIZATION COORDINATE SETUP
------------------------------------------------------------------------------

The optimization will be done in redundant internal coordinates (2022)
Making redundant internal coordinates   ...  (2022 redundants) done
Evaluating the initial hessian          ...  (Almloef) done
Evaluating the coordinates              ...  done
Calculating the B-matrix                .... done
Calculating the G-matrix                .... done
Diagonalizing the G-matrix              .... done
The first mode is                       ....    3
The number of degrees of freedom        ....   12

    -----------------------------------------------------------------
                    Redundant Internal Coordinates


    -----------------------------------------------------------------
         Definition                    Initial Value    Approx d2E/dq
    -----------------------------------------------------------------
      1. B(H   1,C   0)                  1.0910         0.358828   
      2. B(Br  2,C   0)                  1.9349         0.283689   
      3. B(H   3,C   0)                  1.0910         0.358829   
      4. B(H   4,C   0)                  1.0910         0.358829   
      5. B(Cl  5,C   0)                  2.1653         0.081234   
      6. A(H   1,C   0,H   3)          110.8296         0.290517   
      7. A(Br  2,C   0,H   3)          108.0760         0.328700   
      8. A(H   1,C   0,H   4)          110.8297         0.290516   
      9. A(Br  2,C   0,H   4)          108.0763         0.328700   
     10. A(H   3,C   0,H   4)          110.8294         0.290517   
     11. A(H   1,C   0,Cl  5)           59.5674         0.265070   
     12. A(Br  2,C   0,Cl  5)          146.8282         0.298432   
     13. A(H   3,C   0,Cl  5)           57.8033         0.265070   
     14. A(H   4,C   0,Cl  5)          105.0823         0.265070   
     15. A(H   1,C   0,Br  2)          108.0761         0.328700   
    -----------------------------------------------------------------

Number of atoms                         .... 6
Number of degrees of freedom            .... 15


         *************************************************************
         *                GEOMETRY OPTIMIZATION CYCLE   1            *
         *************************************************************
---------------------------------
CARTESIAN COORDINATES (ANGSTROEM)
---------------------------------
  C     -2.085900    3.285310   -0.090860
  H     -0.995260    3.307930   -0.076940
  Br    -2.730870    4.838980    0.865200
  H     -2.461970    2.395580    0.416240
  H     -2.461970    3.337000   -1.113650
  Cl    -0.951730    1.443010    0.000000

----------------------------
CARTESIAN COORDINATES (A.U.)
----------------------------
  NO LB      ZA    FRAG     MASS         X           Y           Z
   0 C     6.0000    0    12.011   -3.941780    6.208336   -0.171701
   1 H     1.0000    0     1.008   -1.880769    6.251082   -0.145396
   2 Br   35.0000    0    79.900   -5.160596    9.144347    1.634991
   3 H     1.0000    0     1.008   -4.652449    4.526990    0.786580
   4 H     1.0000    0     1.008   -4.652449    6.306016   -2.104494
   5 Cl   17.0000    0    35.453   -1.798509    2.726894    0.000000

--------------------------------
INTERNAL COORDINATES (ANGSTROEM)
--------------------------------
 C      0   0   0     0.000000000000     0.00000000     0.00000000
 H      1   0   0     1.090963354288     0.00000000     0.00000000
 Br     1   2   0     1.934923123382   108.07605632     0.00000000
 H      1   2   3     1.090962202737   110.82964471   241.74561780
 H      1   2   3     1.090962824802   110.82969143   118.25476449
 Cl     4   1   2     1.833431264078    91.96253075   331.64044013

---------------------------
INTERNAL COORDINATES (A.U.)
---------------------------
 C      0   0   0     0.000000000000     0.00000000     0.00000000
 H      1   0   0     2.061621961749     0.00000000     0.00000000
 Br     1   2   0     3.656474793384   108.07605632     0.00000000
 H      1   2   3     2.061619785632   110.82964471   241.74561780
 H      1   2   3     2.061620961165   110.82969143   118.25476449
 Cl     4   1   2     3.464682974477    91.96253075   331.64044013

---------------------
BASIS SET INFORMATION
---------------------
There are 4 groups of distinct atoms

 Group   1 Type C   : 7s4p1d contracted to 3s2p1d pattern {511/31/1}
 Group   2 Type H   : 4s1p contracted to 2s1p pattern {31/1}
 Group   3 Type Br  : 14s10p6d contracted to 5s4p3d pattern {63311/5311/411}
 Group   4 Type Cl  : 10s7p1d contracted to 4s3p1d pattern {5311/511/1}

Atom   0C    basis set group =>   1
Atom   1H    basis set group =>   2
Atom   2Br   basis set group =>   3
Atom   3H    basis set group =>   2
Atom   4H    basis set group =>   2
Atom   5Cl   basis set group =>   4
---------------------------------
AUXILIARY/J BASIS SET INFORMATION
---------------------------------
There are 4 groups of distinct atoms

 Group   1 Type C   : 12s5p4d2f1g contracted to 6s4p3d1f1g pattern {711111/2111/211/2/1}
 Group   2 Type H   : 5s2p1d contracted to 3s1p1d pattern {311/2/1}
 Group   3 Type Br  : 19s5p5d3f1g contracted to 8s4p3d2f1g pattern {121111111/2111/311/21/1}
 Group   4 Type Cl  : 14s5p5d2f1g contracted to 8s4p3d1f1g pattern {71111111/2111/311/2/1}

Atom   0C    basis set group =>   1
Atom   1H    basis set group =>   2
Atom   2Br   basis set group =>   3
Atom   3H    basis set group =>   2
Atom   4H    basis set group =>   2
Atom   5Cl   basis set group =>   4
------------------------------------------------------------------------------
                             ORCA STARTUP CALCULATIONS
                           -- RI-GTO INTEGRALS CHOSEN --
------------------------------------------------------------------------------
------------------------------------------------------------------------------
                   ___                                                        
                  /   \      - P O W E R E D   B Y -                         
                 /     \                                                     
                 |  |  |   _    _      __       _____    __    __             
                 |  |  |  | |  | |    /  \     |  _  \  |  |  /  |          
                  \  \/   | |  | |   /    \    | | | |  |  | /  /          
                 / \  \   | |__| |  /  /\  \   | |_| |  |  |/  /          
                |  |  |   |  __  | /  /__\  \  |    /   |      \           
                |  |  |   | |  | | |   __   |  |    \   |  |\   \          
                \     /   | |  | | |  |  |  |  | |\  \  |  | \   \       
                 \___/    |_|  |_| |__|  |__|  |_| \__\ |__|  \__/        
                                                                              
                      - O R C A' S   B I G   F R I E N D -                    
                                      &                                       
                       - I N T E G R A L  F E E D E R -                       
                                                                              
 v1 FN, 2020, v2 2021, v3 2022-2024                                           
------------------------------------------------------------------------------


----------------------
SHARK INTEGRAL PACKAGE
----------------------

Number of atoms                             ...      6
Number of basis functions                   ...     79
Number of shells                            ...     35
Maximum angular momentum                    ...      2
Integral batch strategy                     ... SHARK/LIBINT Hybrid
RI-J (if used) integral strategy            ... SPLIT-RIJ (Revised 2003 algorithm where possible)
Printlevel                                  ...      1
Contraction scheme used                     ... SEGMENTED contraction
Prescreening option                         ... SCHWARTZ
   Thresh                                   ... 2.500e-11
   Tcut                                     ... 2.500e-12
   Tpresel                                  ... 2.500e-12 
Coulomb Range Separation                    ... NOT USED
Exchange Range Separation                   ... NOT USED
Multipole approximations                    ... NOT USED
Finite Nucleus Model                        ... NOT USED
CABS basis                                  ... NOT available
Auxiliary Coulomb fitting basis             ... AVAILABLE
   # of basis functions in Aux-J            ...    191
   # of shells in Aux-J                     ...     65
   Maximum angular momentum in Aux-J        ...      4
Auxiliary J/K fitting basis                 ... NOT available
Auxiliary Correlation fitting basis         ... NOT available
Auxiliary 'external' fitting basis          ... NOT available

Checking pre-screening integrals            ... done (  0.0 sec) Dimension = 35
Check shell pair data                       ... done (  0.0 sec)
Shell pair information
Shell pair cut-off parameter TPreSel        ...   2.5e-12
Total number of shell pairs                 ...       630
Shell pairs after pre-screening             ...       595
Total number of primitive shell pairs       ...      2935
Primitive shell pairs kept                  ...      2151
          la=0 lb=0:    161 shell pairs
          la=1 lb=0:    204 shell pairs
          la=1 lb=1:     75 shell pairs
          la=2 lb=0:     84 shell pairs
          la=2 lb=1:     56 shell pairs
          la=2 lb=2:     15 shell pairs

Calculating one electron integrals          ... done (  0.0 sec)
Calculating RI/J V-Matrix + Cholesky decomp.... done (  0.0 sec)
Calculating Nuclear repulsion               ... done (  0.0 sec) ENN=    207.422652163594 Eh

Diagonalization of the overlap matrix:
Smallest eigenvalue                        ... 9.666e-03
Time for diagonalization                   ...    0.004 sec
Threshold for overlap eigenvalues          ... 1.000e-07
Number of eigenvalues below threshold      ... 0
Time for construction of square roots      ...    0.000 sec
Total time needed                          ...    0.005 sec

-------------------
DFT GRID GENERATION
-------------------

General Integration Accuracy     IntAcc      ... 4.388
Radial Grid Type                 RadialGrid  ... OptM3 with GC (2021)
Angular Grid (max. ang.)         AngularGrid ... 4 (Lebedev-302)
Angular grid pruning method      GridPruning ... 4 (adaptive)
Weight generation scheme         WeightScheme... mBecke (2022)
Basis function cutoff            BFCut       ... 1.0000e-11
Integration weight cutoff        WCut        ... 1.0000e-14
Partially contracted basis set               ... off
Rotationally invariant grid construction     ... off
Angular grids for H and He will be reduced by one unit
Core-polarized basis detected: some atoms will have their core
                               angular grid increased.

Total number of grid points                  ...    34541
Total number of batches                      ...      542
Average number of points per batch           ...       63
Average number of grid points per atom       ...     5757

--------------------
COSX GRID GENERATION
--------------------

GRIDX 1
-------
General Integration Accuracy     IntAcc      ... 3.816
Radial Grid Type                 RadialGrid  ... OptM3 with GC (2021)
Angular Grid (max. ang.)         AngularGrid ... 1 (Lebedev-50)
Angular grid pruning method      GridPruning ... 4 (adaptive)
Weight generation scheme         WeightScheme... mBecke (2022)
Basis function cutoff            BFCut       ... 1.0000e-11
Integration weight cutoff        WCut        ... 1.0000e-14
Partially contracted basis set               ... on
Rotationally invariant grid construction     ... off
Angular grids for H and He will be reduced by one unit
Core-polarized basis detected: some atoms will have their core
                               angular grid increased.

Total number of grid points                  ...    10219
Total number of batches                      ...       82
Average number of points per batch           ...      124
Average number of grid points per atom       ...     1703
UseSFitting                                  ... on

GRIDX 2
-------
General Integration Accuracy     IntAcc      ... 4.020
Radial Grid Type                 RadialGrid  ... OptM3 with GC (2021)
Angular Grid (max. ang.)         AngularGrid ... 2 (Lebedev-110)
Angular grid pruning method      GridPruning ... 4 (adaptive)
Weight generation scheme         WeightScheme... mBecke (2022)
Basis function cutoff            BFCut       ... 1.0000e-11
Integration weight cutoff        WCut        ... 1.0000e-14
Partially contracted basis set               ... on
Rotationally invariant grid construction     ... off
Angular grids for H and He will be reduced by one unit
Core-polarized basis detected: some atoms will have their core
                               angular grid increased.

Total number of grid points                  ...    12397
Total number of batches                      ...      100
Average number of points per batch           ...      123
Average number of grid points per atom       ...     2066
UseSFitting                                  ... on

GRIDX 3
-------
General Integration Accuracy     IntAcc      ... 4.338
Radial Grid Type                 RadialGrid  ... OptM3 with GC (2021)
Angular Grid (max. ang.)         AngularGrid ... 3 (Lebedev-194)
Angular grid pruning method      GridPruning ... 4 (adaptive)
Weight generation scheme         WeightScheme... mBecke (2022)
Basis function cutoff            BFCut       ... 1.0000e-11
Integration weight cutoff        WCut        ... 1.0000e-14
Partially contracted basis set               ... on
Rotationally invariant grid construction     ... off
Angular grids for H and He will be reduced by one unit
Core-polarized basis detected: some atoms will have their core
                               angular grid increased.

Total number of grid points                  ...    20467
Total number of batches                      ...      162
Average number of points per batch           ...      126
Average number of grid points per atom       ...     3411
UseSFitting                                  ... on
Initializing property integral containers    ... done (  0.0 sec)

SHARK setup successfully completed in   0.6 seconds

Maximum memory used throughout the entire STARTUP-calculation: 16.8 MB
-------------------------------------------------------------------------------
                                 ORCA GUESS
                   Start orbitals & Density for SCF / CASSCF
-------------------------------------------------------------------------------

------------
SCF SETTINGS
------------
Hamiltonian:
 Density Functional     Method          .... DFT(GTOs)
 Exchange Functional    Exchange        .... B88
   X-Alpha parameter    XAlpha          ....  0.666667
   Becke's b parameter  XBeta           ....  0.004200
 Correlation Functional Correlation     .... LYP
 LDA part of GGA corr.  LDAOpt          .... VWN-5
 Gradients option       PostSCFGGA      .... off
 Hybrid DFT is turned on
   Fraction HF Exchange ScalHFX         ....  0.200000
   Scaling of DF-GGA-X  ScalDFX         ....  0.720000
   Scaling of DF-GGA-C  ScalDFC         ....  0.810000
   Scaling of DF-LDA-C  ScalLDAC        ....  1.000000
   Perturbative correction              ....  0.000000
   NL short-range parameter             ....  4.800000
 RI-approximation to the Coulomb term is turned on
   Number of AuxJ basis functions       .... 191
   RIJ-COSX (HFX calculated with COS-X)).... on


General Settings:
 Integral files         IntName         .... reactant_opt
 Hartree-Fock type      HFTyp           .... RHF
 Total Charge           Charge          ....   -1
 Multiplicity           Mult            ....    1
 Number of Electrons    NEL             ....   62
 Basis Dimension        Dim             ....   79
 Nuclear Repulsion      ENuc            ....    207.4226521636 Eh

Convergence Acceleration:
 AO-DIIS                CNVDIIS         .... on
   Start iteration      DIISMaxIt       ....    12
   Startup error        DIISStart       ....  0.200000
   # of expansion vecs  DIISMaxEq       ....     5
   Bias factor          DIISBfac        ....   1.050
   Max. coefficient     DIISMaxC        ....  10.000
 MO-DIIS                CNVKDIIS        .... off
 Trust-Rad. Augm. Hess. CNVTRAH         .... auto
   Auto Start mean grad. ratio tolernc. ....  1.125000
   Auto Start start iteration           ....    50
   Auto Start num. interpolation iter.  ....    10
   Max. Number of Micro iterations      ....    24
   Max. Number of Macro iterations      .... Maxiter - #DIIS iter
   Number of Davidson start vectors     ....     2
   Converg. threshold    (grad. norm)   ....   1.000e-05
   Grad. Scal. Fac. for Micro threshold ....   0.100
   Minimum threshold for Micro iter.    ....   1.000e-02
   NR start threshold (gradient norm)   ....   1.000e-04
   Initial trust radius                 ....   0.400
   Minimum AH scaling param. (alpha)    ....   1.000
   Maximum AH scaling param. (alpha)    .... 1000.000
   Quad. conv. algorithm                .... NR
   White noise on init. David. guess    .... on
   Maximum white noise                  ....   0.010
   Pseudo random numbers                .... off
   Inactive MOs                         .... canonical
   Orbital update algorithm             .... Taylor
   Preconditioner                       .... Diag
   Full preconditioner red. dimension   ....   250
 SOSCF                  CNVSOSCF        .... on
   Start iteration      SOSCFMaxIt      ....   150
   Startup grad/error   SOSCFStart      ....  0.003300
   Hessian update       SOSCFHessUp     .... L-BFGS
 Level Shifting         CNVShift        .... on
   Level shift para.    LevelShift      ....    0.2500
   Turn off err/grad.   ShiftErr        ....    0.0010
 Zerner damping         CNVZerner       .... off
 Static damping         CNVDamp         .... on
   Fraction old density DampFac         ....    0.7000
   Max. Damping (<1)    DampMax         ....    0.9800
   Min. Damping (>=0)   DampMin         ....    0.0000
   Turn off err/grad.   DampErr         ....    0.1000

SCF Procedure:
 Maximum # iterations   MaxIter         ....   125
 SCF integral mode      SCFMode         .... Direct
   Integral package                     .... SHARK and LIBINT hybrid scheme
 Reset frequency        DirectResetFreq ....    20
 Integral Threshold     Thresh          ....  2.500e-11 Eh
 Primitive CutOff       TCut            ....  2.500e-12 Eh

Convergence Tolerance:
 Convergence Check Mode ConvCheckMode   .... Total+1el-Energy
 Convergence forced     ConvForced      .... 0
 Energy Change          TolE            ....  1.000e-08 Eh
 1-El. energy change                    ....  1.000e-05 Eh
 Orbital Gradient       TolG            ....  1.000e-05
 Orbital Rotation angle TolX            ....  1.000e-05
 DIIS Error             TolErr          ....  5.000e-07

------------------------------
INITIAL GUESS: MODEL POTENTIAL
------------------------------
Loading Hartree-Fock densities                     ... done
Calculating cut-offs                               ... done
Initializing the effective Hamiltonian             ... done
Setting up the integral package (SHARK)            ... done
Starting the Coulomb interaction                   ... done (   0.0 sec)
Making the grid                                    ... done (   0.1 sec)
Mapping shells                                     ... done
Starting the XC term evaluation                    ... done (   0.0 sec)
  promolecular density results
     # of electrons  =     60.997702551
     EX              =   -123.264401621
     EC              =     -2.689879667
     EX+EC           =   -125.954281288
Transforming the Hamiltonian                       ... done (   0.0 sec)
Diagonalizing the Hamiltonian                      ... done (   0.0 sec)
Back transforming the eigenvectors                 ... done (   0.0 sec)
Now organizing SCF variables                       ... done
                      ------------------
                      INITIAL GUESS DONE (   0.2 sec)
                      ------------------
             **** ENERGY FILE WAS UPDATED (reactant_opt.en.tmp) ****
Finished Guess after   0.2 sec
Maximum memory used throughout the entire GUESS-calculation: 9.8 MB

-------------------------------------------------------------------------------------------
                                      ORCA LEAN-SCF
                              memory conserving SCF solver
-------------------------------------------------------------------------------------------

----------------------------------------D-I-I-S--------------------------------------------
Iteration    Energy (Eh)           Delta-E    RMSDP     MaxDP     DIISErr   Damp  Time(sec)
-------------------------------------------------------------------------------------------
               ***  Starting incremental Fock matrix formation  ***
    1    -3073.4317361431844802     0.00e+00  6.70e-03  1.11e-01  1.58e-01  0.700   1.0
    2    -3073.4826217146596719    -5.09e-02  5.24e-03  7.61e-02  8.14e-02  0.700   0.7
                               ***Turning on AO-DIIS***
    3    -3073.5048358775716224    -2.22e-02  2.57e-03  3.61e-02  3.77e-02  0.700   0.7
    4    -3073.5174748226995689    -1.26e-02  4.46e-03  8.16e-02  1.92e-02  0.000   0.7
    5    -3073.5442379191126747    -2.68e-02  9.19e-04  1.30e-02  6.70e-03  0.000   0.7
                              *** Initializing SOSCF ***
---------------------------------------S-O-S-C-F--------------------------------------
Iteration    Energy (Eh)           Delta-E    RMSDP     MaxDP     MaxGrad    Time(sec)
--------------------------------------------------------------------------------------
    6    -3073.5445077008866974    -2.70e-04  2.97e-04  5.31e-03  2.20e-03     0.7
               *** Restarting incremental Fock matrix formation ***
    7    -3073.5445423498708806    -3.46e-05  3.18e-04  5.91e-03  6.07e-04     0.9
    8    -3073.5445441613837829    -1.81e-06  8.57e-05  1.41e-03  4.81e-04     0.8
    9    -3073.5445468828434059    -2.72e-06  2.68e-05  5.19e-04  7.03e-05     0.7
   10    -3073.5445469282626618    -4.54e-08  8.38e-06  1.80e-04  5.44e-05     0.7
   11    -3073.5445469498222337    -2.16e-08  2.44e-06  3.47e-05  9.70e-06     0.6
   12    -3073.5445469511610099    -1.34e-09  8.48e-07  1.57e-05  5.32e-06     0.6
                 **** Energy Check signals convergence ****

               *****************************************************
               *                     SUCCESS                       *
               *           SCF CONVERGED AFTER  12 CYCLES          *
               *****************************************************

Recomputing exchange energy using gridx3       ... done (    1.168 sec)
Old exchange energy                            :    -24.743714826 Eh
New exchange energy                            :    -24.743706853 Eh
Exchange energy change after final integration :      0.000007972 Eh
Total energy after final integration           :  -3073.544538979 Eh
             **** ENERGY FILE WAS UPDATED (reactant_opt.en.tmp) ****

----------------
TOTAL SCF ENERGY
----------------

Total Energy       :      -3073.54453897876192 Eh          -83635.39885 eV

Components:
Nuclear Repulsion  :        207.42265216359377 Eh            5644.25731 eV
Electronic Energy  :      -3280.96719911475475 Eh          -89279.65638 eV
One Electron Energy:      -4698.84281918396118 Eh         -127862.01349 eV
Two Electron Energy:       1417.87562006920643 Eh           38582.35711 eV

Virial components:
Potential Energy   :      -6143.74279120938900 Eh         -167179.74060 eV
Kinetic Energy     :       3070.19825223062708 Eh           83544.34176 eV
Virial Ratio       :          2.00108992529903

DFT components:
N(Alpha)           :       31.000003212716 electrons
N(Beta)            :       31.000003212716 electrons
N(Total)           :       62.000006425433 electrons
E(X)               :      -98.393272895083 Eh       
E(C)               :       -3.180106406640 Eh       
E(XC)              :     -101.573379301724 Eh       

---------------
SCF CONVERGENCE
---------------

  Last Energy change         ...    1.3388e-09  Tolerance :   1.0000e-08
  Last MAX-Density change    ...    1.5708e-05  Tolerance :   1.0000e-07
  Last RMS-Density change    ...    8.4781e-07  Tolerance :   5.0000e-09
  Last DIIS Error            ...    2.1967e-03  Tolerance :   5.0000e-07
  Last Orbital Gradient      ...    5.3218e-06  Tolerance :   1.0000e-05
  Last Orbital Rotation      ...    5.8303e-06  Tolerance :   1.0000e-05


----------------
ORBITAL ENERGIES
----------------

  NO   OCC          E(Eh)            E(eV) 
   0   2.0000    -482.564386    -13131.2445 
   1   2.0000    -101.163397     -2752.7960 
   2   2.0000     -62.249078     -1693.8835 
   3   2.0000     -56.080362     -1526.0242 
   4   2.0000     -56.078758     -1525.9806 
   5   2.0000     -56.078754     -1525.9805 
   6   2.0000     -10.006814      -272.2992 
   7   2.0000      -9.121063      -248.1967 
   8   2.0000      -8.467852      -230.4220 
   9   2.0000      -6.884453      -187.3355 
  10   2.0000      -6.883257      -187.3029 
  11   2.0000      -6.882401      -187.2797 
  12   2.0000      -6.298799      -171.3990 
  13   2.0000      -6.289788      -171.1538 
  14   2.0000      -6.289760      -171.1531 
  15   2.0000      -2.413555       -65.6762 
  16   2.0000      -2.411006       -65.6068 
  17   2.0000      -2.410985       -65.6062 
  18   2.0000      -2.403779       -65.4102 
  19   2.0000      -2.403772       -65.4099 
  20   2.0000      -0.603305       -16.4168 
  21   2.0000      -0.531366       -14.4592 
  22   2.0000      -0.423000       -11.5104 
  23   2.0000      -0.244130        -6.6431 
  24   2.0000      -0.242422        -6.5966 
  25   2.0000      -0.190091        -5.1726 
  26   2.0000      -0.087460        -2.3799 
  27   2.0000      -0.084404        -2.2967 
  28   2.0000      -0.031764        -0.8644 
  29   2.0000      -0.017927        -0.4878 
  30   2.0000       0.028734         0.7819 
  31   0.0000       0.235961         6.4208 
  32   0.0000       0.259867         7.0713 
  33   0.0000       0.299382         8.1466 
  34   0.0000       0.343710         9.3528 
  35   0.0000       0.526114        14.3163 
  36   0.0000       0.571887        15.5618 
  37   0.0000       0.579935        15.7808 
  38   0.0000       0.676798        18.4166 
  39   0.0000       0.731688        19.9102 
  40   0.0000       0.731970        19.9179 
  41   0.0000       0.768494        20.9118 
*Only the first 10 virtual orbitals were printed.

                    ********************************
                    * MULLIKEN POPULATION ANALYSIS *
                    ********************************

-----------------------
MULLIKEN ATOMIC CHARGES
-----------------------
   0 C :   -0.009773
   1 H :    0.065346
   2 Br:   -0.423313
   3 H :    0.067799
   4 H :   -0.018204
   5 Cl:   -0.681854
Sum of atomic charges:   -1.0000000

--------------------------------
MULLIKEN REDUCED ORBITAL CHARGES
--------------------------------
  0 C s       :     3.131140  s :     3.131140
      pz      :     0.984329  p :     2.841609
      px      :     1.021873
      py      :     0.835407
      dz2     :     0.008062  d :     0.037025
      dxz     :     0.003875
      dyz     :     0.006606
      dx2y2   :     0.009599
      dxy     :     0.008884

  1 H s       :     0.901550  s :     0.901550
      pz      :     0.004954  p :     0.033104
      px      :     0.017384
      py      :     0.010765

  2 Brs       :     7.965188  s :     7.965188
      pz      :     5.826375  p :    17.411536
      px      :     5.938081
      py      :     5.647079
      dz2     :     2.008348  d :    10.046589
      dxz     :     2.004376
      dyz     :     2.012213
      dx2y2   :     2.010928
      dxy     :     2.010724

  3 H s       :     0.897619  s :     0.897619
      pz      :     0.007376  p :     0.034582
      px      :     0.008972
      py      :     0.018234

  4 H s       :     0.995377  s :     0.995377
      pz      :     0.012805  p :     0.022827
      px      :     0.005958
      py      :     0.004064

  5 Cls       :     5.987944  s :     5.987944
      pz      :     3.947525  p :    11.677042
      px      :     3.860780
      py      :     3.868737
      dz2     :     0.003166  d :     0.016868
      dxz     :     0.000768
      dyz     :     0.001200
      dx2y2   :     0.005640
      dxy     :     0.006095



                     *******************************
                     * LOEWDIN POPULATION ANALYSIS *
                     *******************************

----------------------
LOEWDIN ATOMIC CHARGES
----------------------
   0 C :   -0.183974
   1 H :   -0.023094
   2 Br:   -0.228955
   3 H :   -0.027445
   4 H :   -0.011682
   5 Cl:   -0.524850

-------------------------------
LOEWDIN REDUCED ORBITAL CHARGES
-------------------------------
  0 C s       :     2.964167  s :     2.964167
      pz      :     1.074903  p :     3.128904
      px      :     1.097433
      py      :     0.956569
      dz2     :     0.019195  d :     0.090902
      dxz     :     0.008919
      dyz     :     0.017552
      dx2y2   :     0.024977
      dxy     :     0.020259

  1 H s       :     0.909732  s :     0.909732
      pz      :     0.013430  p :     0.113362
      px      :     0.060714
      py      :     0.039219

  2 Brs       :     7.827894  s :     7.827894
      pz      :     5.807707  p :    17.330335
      px      :     5.909328
      py      :     5.613299
      dz2     :     2.010940  d :    10.070726
      dxz     :     2.006861
      dyz     :     2.018725
      dx2y2   :     2.016964
      dxy     :     2.017236

  3 H s       :     0.906816  s :     0.906816
      pz      :     0.020926  p :     0.120629
      px      :     0.025955
      py      :     0.073748

  4 H s       :     0.940926  s :     0.940926
      pz      :     0.040202  p :     0.070757
      px      :     0.018099
      py      :     0.012456

  5 Cls       :     5.892431  s :     5.892431
      pz      :     3.948162  p :    11.610210
      px      :     3.847523
      py      :     3.814525
      dz2     :     0.004536  d :     0.022208
      dxz     :     0.000961
      dyz     :     0.001230
      dx2y2   :     0.007233
      dxy     :     0.008249



                      *****************************
                      * MAYER POPULATION ANALYSIS *
                      *****************************

  NA   - Mulliken gross atomic population
  ZA   - Total nuclear charge
  QA   - Mulliken gross atomic charge
  VA   - Mayer's total valence
  BVA  - Mayer's bonded valence
  FA   - Mayer's free valence

  ATOM       NA         ZA         QA         VA         BVA        FA
  0 C      6.0098     6.0000    -0.0098     3.6454     3.6454    -0.0000
  1 H      0.9347     1.0000     0.0653     1.0605     1.0605    -0.0000
  2 Br    35.4233    35.0000    -0.4233     0.8266     0.8266    -0.0000
  3 H      0.9322     1.0000     0.0678     1.0663     1.0663    -0.0000
  4 H      1.0182     1.0000    -0.0182     0.9877     0.9877     0.0000
  5 Cl    17.6819    17.0000    -0.6819     0.5273     0.5273    -0.0000

  Mayer bond orders larger than 0.100000
B(  0-C ,  1-H ) :   0.9374 B(  0-C ,  2-Br) :   0.6898 B(  0-C ,  3-H ) :   0.9290 
B(  0-C ,  4-H ) :   0.9626 B(  0-C ,  5-Cl) :   0.1266 B(  1-H ,  5-Cl) :   0.1231 
B(  2-Br,  5-Cl) :   0.1139 B(  3-H ,  5-Cl) :   0.1368 

-------
TIMINGS
-------

Total SCF time: 0 days 0 hours 0 min 10 sec 

Total time                  ....      10.088 sec
Sum of individual times     ....      10.033 sec  ( 99.5%)

SCF preparation             ....       0.069 sec  (  0.7%)
Fock matrix formation       ....       9.922 sec  ( 98.3%)
  Startup                   ....       0.002 sec  (  0.0% of F)
  Split-RI-J                ....       0.388 sec  (  3.9% of F)
  Chain of spheres X        ....       8.103 sec  ( 81.7% of F)
  XC integration            ....       1.406 sec  ( 14.2% of F)
    XC Preparation          ....       0.000 sec  (  0.0% of XC)
    Basis function eval.    ....       0.577 sec  ( 41.0% of XC)
    Density eval.           ....       0.218 sec  ( 15.5% of XC)
    XC-Functional eval.     ....       0.166 sec  ( 11.8% of XC)
    XC-Potential eval.      ....       0.274 sec  ( 19.5% of XC)
Diagonalization             ....       0.000 sec  (  0.0%)
Density matrix formation    ....       0.007 sec  (  0.1%)
Total Energy calculation    ....       0.002 sec  (  0.0%)
Population analysis         ....       0.004 sec  (  0.0%)
Orbital Transformation      ....       0.003 sec  (  0.0%)
Orbital Orthonormalization  ....       0.000 sec  (  0.0%)
DIIS solution               ....       0.016 sec  (  0.2%)
SOSCF solution              ....       0.010 sec  (  0.1%)
Finished LeanSCF after  10.1 sec

Maximum memory used throughout the entire LEANSCF-calculation: 9.0 MB

------------------------------------------------------------------------------
                         ORCA PROPERTY INTEGRAL CALCULATIONS
------------------------------------------------------------------------------

GBWName                                   ... reactant_opt.gbw
Number of atoms                           ...      6
Number of basis functions                 ...     79
Max core memory                           ...   1024 MB

Dipole integrals                          ... YES
Quadrupole integrals                      ...  NO
Linear momentum integrals                 ...  NO
Angular momentum integrals                ...  NO
Higher moments length integrals           ...  NO
Higher moments velocity integrals         ...  NO
Kinetic energy integrals                  ...  NO
GIAO right hand sides                     ...  NO
GIAO dipole derivative integrals          ...  NO
SOC integrals                             ...  NO
EPR diamagnetic integrals (GIAO)          ...  NO
EPR gauge integrals                       ...  NO
Field gradient integrals                  ...  NO (   0 nuclei)
Spin-dipole/Fermi contact integrals       ...  NO (   0 nuclei)
Contact density integrals                 ...  NO (   0 nuclei)
Nucleus-orbit integrals                   ...  NO (   0 nuclei)
Geometric perturbations                   ...  NO (   6 nuclei)

Choice of electric origin   ... Center of mass
Position of electric origin ... ( -4.1009,  7.0490,  0.9748) 
Choice of magnetic origin   ... GIAO
Position of magnetic origin ... (  0.0000,  0.0000,  0.0000) 

Calculating integrals                     ... Electric Dipole (Length)     done (  0.0 sec)

Property integrals calculated in   0.0 sec

Maximum memory used throughout the entire PROPINT-calculation: 7.4 MB

-------------------------   --------------------
FINAL SINGLE POINT ENERGY     -3073.544538978762
-------------------------   --------------------

------------------------------------------------------------------------------
                         ORCA SCF GRADIENT CALCULATION
------------------------------------------------------------------------------

Nuc. rep. gradient        (SHARK) ... done (  0.0 sec)
HCore & Overlap gradient  (SHARK) ... done (  0.0 sec)
Split-RIJ-J gradient      (SHARK) ... done (  0.3 sec)
COSX-gradient                     ... done (  4.5 sec)
XC gradient                       ... done (  0.6 sec)

------------------
CARTESIAN GRADIENT
------------------

   1   C   :    0.017863738   -0.021230884    0.016665359
   2   H   :    0.015021078   -0.027731226   -0.005347891
   3   Br  :    0.026456565   -0.057121260   -0.025055157
   4   H   :    0.016888562   -0.029081286   -0.005819880
   5   H   :    0.003212786   -0.001382035    0.007376424
   6   Cl  :   -0.079442730    0.136546691    0.012181145

Difference to translation invariance:
           :   -0.0000000000    0.0000000010    0.0000000001

Difference to rotation invariance:
           :   -0.0000113406    0.0000110642   -0.0000406005

Norm of the Cartesian gradient     ...    0.1816518268
RMS gradient                       ...    0.0428157462
MAX gradient                       ...    0.1365466909

-------
TIMINGS
-------

Total SCF gradient time     ....        5.465 sec

Densities                   ....       0.000 sec  (  0.0%)
One electron gradient       ....       0.027 sec  (  0.5%)
RI-J Coulomb gradient       ....       0.314 sec  (  5.7%)
COSX gradient               ....       4.530 sec  ( 82.9%)
XC gradient                 ....       0.593 sec  ( 10.9%)

Maximum memory used throughout the entire SCFGRAD-calculation: 10.8 MB
------------------------------------------------------------------------------
                         ORCA GEOMETRY RELAXATION STEP
------------------------------------------------------------------------------

Reading the OPT-File                    .... done
Getting information on internals        .... done
Copying old internal coords+grads       .... done
Making the new internal coordinates     .... (2022 redundants) done
Validating the new internal coordinates .... (2022 redundants) done
Calculating the B-matrix                .... done
Calculating the G,G- and P matrices     .... done
Transforming gradient to internals      .... done
Projecting the internal gradient        .... done
Number of atoms                         ....   6
Number of internal coordinates          ....  15
Current Energy                          .... -3073.544538979 Eh
Current gradient norm                   ....     0.181651827 Eh/bohr
Maximum allowed component of the step   ....  0.300
Current trust radius                    ....  0.300
Evaluating the initial hessian          ....  (Almloef) done
Projecting the Hessian                  .... done
Forming the augmented Hessian           .... done
Diagonalizing the augmented Hessian     .... done
Last element of RFO vector              ....  0.796943298
Lowest eigenvalues of augmented Hessian:
 -0.137303531  0.174546988  0.265081443  0.279962000  0.286444392
Length of the computed step             ....  0.757963736
Warning: the length of the step is outside the trust region - taking restricted step instead
The input lambda is                     ....     0.080234
   iter:   5  x=    0.073640  g=381254.280605 f(x)=   965.217532
   iter:  10  x=    0.023424  g=  868.321160 f(x)=    16.768434
   iter:  15  x=   -0.312203  g=    2.368127 f(x)=     0.262636
   iter:  20  x=   -0.499074  g=    0.295139 f(x)=     0.000000
The output lambda is                    ....    -0.499074 (22 iterations)
The final length of the internal step   ....  0.300000000
Converting the step to Cartesian space:
 Initial RMS(Int)=    0.0774596669
Transforming coordinates:
 Iter   0:  RMS(Cart)=    0.0782106393 RMS(Int)=    0.0777393362
done
Storing new coordinates                 .... done

                                .--------------------.
          ----------------------|Geometry convergence|-------------------------
          Item                value                   Tolerance       Converged
          ---------------------------------------------------------------------
          RMS gradient        0.0483246365            0.0001000000      NO
          MAX gradient        0.1572759070            0.0003000000      NO
          RMS step            0.0774596669            0.0020000000      NO
          MAX step            0.2710211222            0.0040000000      NO
          ........................................................
          Max(Bonds)      0.1434      Max(Angles)    2.86
          Max(Dihed)        0.00      Max(Improp)    0.00
          ---------------------------------------------------------------------

The optimization has not yet converged - more geometry cycles are needed


    ---------------------------------------------------------------------------
                         Redundant Internal Coordinates
                            (Angstroem and degrees)

        Definition                    Value    dE/dq     Step     New-Value
    ----------------------------------------------------------------------------
     1. B(H   1,C   0)                1.0910  0.014373 -0.0089    1.0821   
     2. B(Br  2,C   0)                1.9349 -0.067065  0.0453    1.9803   
     3. B(H   3,C   0)                1.0910  0.015190 -0.0094    1.0816   
     4. B(H   4,C   0)                1.0910 -0.008088  0.0050    1.0960   
     5. B(Cl  5,C   0)                2.1653 -0.157276  0.1434    2.3088   
     6. A(H   1,C   0,H   3)          110.83 -0.021079    1.54    112.37   
     7. A(Br  2,C   0,H   3)          108.08  0.017818   -1.29    106.79   
     8. A(H   1,C   0,H   4)          110.83 -0.013184    0.93    111.76   
     9. A(Br  2,C   0,H   4)          108.08  0.014283   -1.00    107.07   
    10. A(H   3,C   0,H   4)          110.83 -0.013892    0.98    111.81   
    11. A(H   1,C   0,Cl  5)           59.57 -0.024379    1.77     61.33   
    12. A(Br  2,C   0,Cl  5)          146.83 -0.039198    2.86    149.69   
    13. A(H   3,C   0,Cl  5)           57.80 -0.029337    2.14     59.94   
    14. A(H   4,C   0,Cl  5)          105.08  0.024835   -1.85    103.23   
    15. A(H   1,C   0,Br  2)          108.08  0.018761   -1.35    106.72   
    ----------------------------------------------------------------------------

Geometry step timings:
Preparation and reading OPT file:      0.000 s (12.698 %)
Internal coordinates            :      0.000 s ( 3.274 %)
B/P matrices and projection     :      0.000 s (15.179 %)
Hessian update/contruction      :      0.000 s (17.163 %)
Making the step                 :      0.000 s (16.964 %)
Converting the step to Cartesian:      0.000 s ( 3.869 %)
Storing new data                :      0.000 s ( 3.770 %)
Checking convergence            :      0.000 s ( 0.099 %)
Final printing                  :      0.000 s (26.488 %)
Total time                      :      0.001 s

Time for energy+gradient        :     16.700 s
Time for complete geometry iter :     16.753 s

         *************************************************************
         *                GEOMETRY OPTIMIZATION CYCLE   2            *
         *************************************************************
---------------------------------
CARTESIAN COORDINATES (ANGSTROEM)
---------------------------------
  C     -2.087703    3.289413   -0.085199
  H     -1.007379    3.340152   -0.049698
  Br    -2.765075    4.894222    0.856709
  H     -2.476003    2.429492    0.443573
  H     -2.462736    3.337891   -1.113844
  Cl    -0.888803    1.316639   -0.051551

----------------------------
CARTESIAN COORDINATES (A.U.)
----------------------------
  NO LB      ZA    FRAG     MASS         X           Y           Z
   0 C     6.0000    0    12.011   -3.945187    6.216090   -0.161003
   1 H     1.0000    0     1.008   -1.903670    6.311973   -0.093916
   2 Br   35.0000    0    79.900   -5.225235    9.248739    1.618945
   3 H     1.0000    0     1.008   -4.678968    4.591075    0.838232
   4 H     1.0000    0     1.008   -4.653897    6.307700   -2.104861
   5 Cl   17.0000    0    35.453   -1.679595    2.488087   -0.097417

--------------------------------
INTERNAL COORDINATES (ANGSTROEM)
--------------------------------
 C      0   0   0     0.000000000000     0.00000000     0.00000000
 H      1   0   0     1.082097617856     0.00000000     0.00000000
 Br     1   2   0     1.980261582576   106.73211702     0.00000000
 H      1   2   3     1.081592321123   112.31263428   243.28572345
 H      1   2   3     1.095951951182   111.73760155   116.73347635
 Cl     4   1   2     2.000698367926    92.08815675   326.58079129

---------------------------
INTERNAL COORDINATES (A.U.)
---------------------------
 C      0   0   0     0.000000000000     0.00000000     0.00000000
 H      1   0   0     2.044868147916     0.00000000     0.00000000
 Br     1   2   0     3.742152064593   106.73211702     0.00000000
 H      1   2   3     2.043913275475   112.31263428   243.28572345
 H      1   2   3     2.071049043670   111.73760155   116.73347635
 Cl     4   1   2     3.780771991964    92.08815675   326.58079129

------------------------------------------------------------------------------
                   ___                                                        
                  /   \      - P O W E R E D   B Y -                         
                 /     \                                                     
                 |  |  |   _    _      __       _____    __    __             
                 |  |  |  | |  | |    /  \     |  _  \  |  |  /  |          
                  \  \/   | |  | |   /    \    | | | |  |  | /  /          
                 / \  \   | |__| |  /  /\  \   | |_| |  |  |/  /          
                |  |  |   |  __  | /  /__\  \  |    /   |      \           
                |  |  |   | |  | | |   __   |  |    \   |  |\   \          
                \     /   | |  | | |  |  |  |  | |\  \  |  | \   \       
                 \___/    |_|  |_| |__|  |__|  |_| \__\ |__|  \__/        
                                                                              
                      - O R C A' S   B I G   F R I E N D -                    
                                      &                                       
                       - I N T E G R A L  F E E D E R -                       
                                                                              
 v1 FN, 2020, v2 2021, v3 2022-2024                                           
------------------------------------------------------------------------------


----------------------
SHARK INTEGRAL PACKAGE
----------------------

Number of atoms                             ...      6
Number of basis functions                   ...     79
Number of shells                            ...     35
Maximum angular momentum                    ...      2
Integral batch strategy                     ... SHARK/LIBINT Hybrid
RI-J (if used) integral strategy            ... SPLIT-RIJ (Revised 2003 algorithm where possible)
Printlevel                                  ...      1
Contraction scheme used                     ... SEGMENTED contraction
Prescreening option                         ... SCHWARTZ
   Thresh                                   ... 2.500e-11
   Tcut                                     ... 2.500e-12
   Tpresel                                  ... 2.500e-12 
Coulomb Range Separation                    ... NOT USED
Exchange Range Separation                   ... NOT USED
Multipole approximations                    ... NOT USED
Finite Nucleus Model                        ... NOT USED
CABS basis                                  ... NOT available
Auxiliary Coulomb fitting basis             ... AVAILABLE
   # of basis functions in Aux-J            ...    191
   # of shells in Aux-J                     ...     65
   Maximum angular momentum in Aux-J        ...      4
Auxiliary J/K fitting basis                 ... NOT available
Auxiliary Correlation fitting basis         ... NOT available
Auxiliary 'external' fitting basis          ... NOT available

Checking pre-screening integrals            ... done (  0.0 sec) Dimension = 35
Check shell pair data                       ... done (  0.0 sec)
Shell pair information
Shell pair cut-off parameter TPreSel        ...   2.5e-12
Total number of shell pairs                 ...       630
Shell pairs after pre-screening             ...       589
Total number of primitive shell pairs       ...      2935
Primitive shell pairs kept                  ...      2128
          la=0 lb=0:    159 shell pairs
          la=1 lb=0:    202 shell pairs
          la=1 lb=1:     74 shell pairs
          la=2 lb=0:     84 shell pairs
          la=2 lb=1:     56 shell pairs
          la=2 lb=2:     14 shell pairs

Calculating one electron integrals          ... done (  0.0 sec)
Calculating RI/J V-Matrix + Cholesky decomp.... done (  0.0 sec)
Calculating Nuclear repulsion               ... done (  0.0 sec) ENN=    199.414303168090 Eh

Diagonalization of the overlap matrix:
Smallest eigenvalue                        ... 1.022e-02
Time for diagonalization                   ...    0.001 sec
Threshold for overlap eigenvalues          ... 1.000e-07
Number of eigenvalues below threshold      ... 0
Time for construction of square roots      ...    0.000 sec
Total time needed                          ...    0.001 sec

-------------------
DFT GRID GENERATION
-------------------

General Integration Accuracy     IntAcc      ... 4.388
Radial Grid Type                 RadialGrid  ... OptM3 with GC (2021)
Angular Grid (max. ang.)         AngularGrid ... 4 (Lebedev-302)
Angular grid pruning method      GridPruning ... 4 (adaptive)
Weight generation scheme         WeightScheme... mBecke (2022)
Basis function cutoff            BFCut       ... 1.0000e-11
Integration weight cutoff        WCut        ... 1.0000e-14
Partially contracted basis set               ... off
Rotationally invariant grid construction     ... off
Angular grids for H and He will be reduced by one unit
Core-polarized basis detected: some atoms will have their core
                               angular grid increased.

Total number of grid points                  ...    34556
Total number of batches                      ...      543
Average number of points per batch           ...       63
Average number of grid points per atom       ...     5759

--------------------
COSX GRID GENERATION
--------------------

GRIDX 1
-------
General Integration Accuracy     IntAcc      ... 3.816
Radial Grid Type                 RadialGrid  ... OptM3 with GC (2021)
Angular Grid (max. ang.)         AngularGrid ... 1 (Lebedev-50)
Angular grid pruning method      GridPruning ... 4 (adaptive)
Weight generation scheme         WeightScheme... mBecke (2022)
Basis function cutoff            BFCut       ... 1.0000e-11
Integration weight cutoff        WCut        ... 1.0000e-14
Partially contracted basis set               ... on
Rotationally invariant grid construction     ... off
Angular grids for H and He will be reduced by one unit
Core-polarized basis detected: some atoms will have their core
                               angular grid increased.

Total number of grid points                  ...    10230
Total number of batches                      ...       81
Average number of points per batch           ...      126
Average number of grid points per atom       ...     1705
UseSFitting                                  ... on

GRIDX 2
-------
General Integration Accuracy     IntAcc      ... 4.020
Radial Grid Type                 RadialGrid  ... OptM3 with GC (2021)
Angular Grid (max. ang.)         AngularGrid ... 2 (Lebedev-110)
Angular grid pruning method      GridPruning ... 4 (adaptive)
Weight generation scheme         WeightScheme... mBecke (2022)
Basis function cutoff            BFCut       ... 1.0000e-11
Integration weight cutoff        WCut        ... 1.0000e-14
Partially contracted basis set               ... on
Rotationally invariant grid construction     ... off
Angular grids for H and He will be reduced by one unit
Core-polarized basis detected: some atoms will have their core
                               angular grid increased.

Total number of grid points                  ...    12411
Total number of batches                      ...      100
Average number of points per batch           ...      124
Average number of grid points per atom       ...     2068
UseSFitting                                  ... on

GRIDX 3
-------
General Integration Accuracy     IntAcc      ... 4.338
Radial Grid Type                 RadialGrid  ... OptM3 with GC (2021)
Angular Grid (max. ang.)         AngularGrid ... 3 (Lebedev-194)
Angular grid pruning method      GridPruning ... 4 (adaptive)
Weight generation scheme         WeightScheme... mBecke (2022)
Basis function cutoff            BFCut       ... 1.0000e-11
Integration weight cutoff        WCut        ... 1.0000e-14
Partially contracted basis set               ... on
Rotationally invariant grid construction     ... off
Angular grids for H and He will be reduced by one unit
Core-polarized basis detected: some atoms will have their core
                               angular grid increased.

Total number of grid points                  ...    20490
Total number of batches                      ...      163
Average number of points per batch           ...      125
Average number of grid points per atom       ...     3415
UseSFitting                                  ... on
Initializing property integral containers    ... done (  0.0 sec)

SHARK setup successfully completed in   0.5 seconds

Maximum memory used throughout the entire STARTUP-calculation: 16.8 MB
Occupation numbers will be reassigned to an Aufbau configuration
             **** ENERGY FILE WAS UPDATED (reactant_opt.en.tmp) ****
Finished Guess after   0.1 sec
Maximum memory used throughout the entire GUESS-calculation: 7.2 MB
----------------------------------------D-I-I-S--------------------------------------------
Iteration    Energy (Eh)           Delta-E    RMSDP     MaxDP     DIISErr   Damp  Time(sec)
-------------------------------------------------------------------------------------------
               ***  Starting incremental Fock matrix formation  ***
    1    -3073.5848026348739950     0.00e+00  8.28e-04  1.40e-02  1.45e-02  0.700   0.9
    2    -3073.5856880797514350    -8.85e-04  7.61e-04  1.09e-02  1.12e-02  0.700   0.6
                               ***Turning on AO-DIIS***
    3    -3073.5863763593101794    -6.88e-04  6.07e-04  7.30e-03  8.34e-03  0.700   0.7
    4    -3073.5868758441861246    -4.99e-04  1.52e-03  1.72e-02  6.04e-03  0.000   0.7
                              *** Initializing SOSCF ***
---------------------------------------S-O-S-C-F--------------------------------------
Iteration    Energy (Eh)           Delta-E    RMSDP     MaxDP     MaxGrad    Time(sec)
--------------------------------------------------------------------------------------
    5    -3073.5880992811275974    -1.22e-03  1.40e-04  2.55e-03  5.02e-04     0.7
               *** Restarting incremental Fock matrix formation ***
    6    -3073.5881009053769048    -1.62e-06  1.49e-04  2.97e-03  2.14e-04     0.9
    7    -3073.5881021127343047    -1.21e-06  5.50e-05  1.10e-03  8.56e-05     0.8
    8    -3073.5881020740507665     3.87e-08  2.35e-05  4.19e-04  1.15e-04     0.7
    9    -3073.5881022076036970    -1.34e-07  3.28e-06  6.83e-05  1.20e-05     0.7
   10    -3073.5881022077319358    -1.28e-10  1.70e-06  3.71e-05  8.73e-06     0.6
                 **** Energy Check signals convergence ****

               *****************************************************
               *                     SUCCESS                       *
               *           SCF CONVERGED AFTER  10 CYCLES          *
               *****************************************************

Recomputing exchange energy using gridx3       ... done (    1.103 sec)
Old exchange energy                            :    -24.736725340 Eh
New exchange energy                            :    -24.736706505 Eh
Exchange energy change after final integration :      0.000018836 Eh
Total energy after final integration           :  -3073.588083372 Eh
             **** ENERGY FILE WAS UPDATED (reactant_opt.en.tmp) ****

----------------
TOTAL SCF ENERGY
----------------

Total Energy       :      -3073.58808337219489 Eh          -83636.58375 eV

Components:
Nuclear Repulsion  :        199.41430316809038 Eh            5426.33906 eV
Electronic Energy  :      -3273.00240537582249 Eh          -89062.92332 eV
One Electron Energy:      -4682.58935725793526 Eh         -127419.73431 eV
Two Electron Energy:       1409.58695188211300 Eh           38356.81098 eV

Virial components:
Potential Energy   :      -6143.51471592005510 Eh         -167173.53436 eV
Kinetic Energy     :       3069.92663254786066 Eh           83536.95061 eV
Virial Ratio       :          2.00119268349462

DFT components:
N(Alpha)           :       31.000004726456 electrons
N(Beta)            :       31.000004726456 electrons
N(Total)           :       62.000009452913 electrons
E(X)               :      -98.362636330773 Eh       
E(C)               :       -3.175853545420 Eh       
E(XC)              :     -101.538489876193 Eh       

---------------
SCF CONVERGENCE
---------------

  Last Energy change         ...    1.2824e-10  Tolerance :   1.0000e-08
  Last MAX-Density change    ...    3.7125e-05  Tolerance :   1.0000e-07
  Last RMS-Density change    ...    1.7020e-06  Tolerance :   5.0000e-09
  Last DIIS Error            ...    5.0211e-04  Tolerance :   5.0000e-07
  Last Orbital Gradient      ...    8.7346e-06  Tolerance :   1.0000e-05
  Last Orbital Rotation      ...    7.0131e-06  Tolerance :   1.0000e-05


Total SCF time: 0 days 0 hours 0 min 8 sec 
Finished LeanSCF after   8.4 sec

Maximum memory used throughout the entire LEANSCF-calculation: 9.1 MB

------------------------------------------------------------------------------
                         ORCA PROPERTY INTEGRAL CALCULATIONS
------------------------------------------------------------------------------

GBWName                                   ... reactant_opt.gbw
Number of atoms                           ...      6
Number of basis functions                 ...     79
Max core memory                           ...   1024 MB

Dipole integrals                          ... YES
Quadrupole integrals                      ...  NO
Linear momentum integrals                 ...  NO
Angular momentum integrals                ...  NO
Higher moments length integrals           ...  NO
Higher moments velocity integrals         ...  NO
Kinetic energy integrals                  ...  NO
GIAO right hand sides                     ...  NO
GIAO dipole derivative integrals          ...  NO
SOC integrals                             ...  NO
EPR diamagnetic integrals (GIAO)          ...  NO
EPR gauge integrals                       ...  NO
Field gradient integrals                  ...  NO (   0 nuclei)
Spin-dipole/Fermi contact integrals       ...  NO (   0 nuclei)
Contact density integrals                 ...  NO (   0 nuclei)
Nucleus-orbit integrals                   ...  NO (   0 nuclei)
Geometric perturbations                   ...  NO (   6 nuclei)

Choice of electric origin   ... Center of mass
Position of electric origin ... ( -4.1089,  7.0497,  0.9402) 
Choice of magnetic origin   ... GIAO
Position of magnetic origin ... (  0.0000,  0.0000,  0.0000) 

Calculating integrals                     ... Electric Dipole (Length)     done (  0.0 sec)

Property integrals calculated in   0.0 sec

Maximum memory used throughout the entire PROPINT-calculation: 7.3 MB

-------------------------   --------------------
FINAL SINGLE POINT ENERGY     -3073.588083372195
-------------------------   --------------------

------------------------------------------------------------------------------
                         ORCA SCF GRADIENT CALCULATION
------------------------------------------------------------------------------

Nuc. rep. gradient        (SHARK) ... done (  0.0 sec)
HCore & Overlap gradient  (SHARK) ... done (  0.0 sec)
Split-RIJ-J gradient      (SHARK) ... done (  0.3 sec)
COSX-gradient                     ... done (  6.0 sec)
XC gradient                       ... done (  0.5 sec)

------------------
CARTESIAN GRADIENT
------------------

   1   C   :    0.013073606   -0.015309677    0.012815044
   2   H   :    0.005272392   -0.013357933   -0.004802510
   3   Br  :    0.018338198   -0.038208819   -0.014918126
   4   H   :    0.007851325   -0.012838890   -0.005723324
   5   H   :    0.000832605   -0.000300642    0.001946132
   6   Cl  :   -0.045368127    0.080015962    0.010682783

Difference to translation invariance:
           :   -0.0000000003   -0.0000000001   -0.0000000001

Difference to rotation invariance:
           :    0.0000140234    0.0000220538   -0.0000129451

Norm of the Cartesian gradient     ...    0.1079644941
RMS gradient                       ...    0.0254474753
MAX gradient                       ...    0.0800159616

-------
TIMINGS
-------

Total SCF gradient time     ....        6.799 sec

Densities                   ....       0.000 sec  (  0.0%)
One electron gradient       ....       0.025 sec  (  0.4%)
RI-J Coulomb gradient       ....       0.289 sec  (  4.3%)
COSX gradient               ....       5.956 sec  ( 87.6%)
XC gradient                 ....       0.528 sec  (  7.8%)

Maximum memory used throughout the entire SCFGRAD-calculation: 10.7 MB
------------------------------------------------------------------------------
                         ORCA GEOMETRY RELAXATION STEP
------------------------------------------------------------------------------

Reading the OPT-File                    .... done
Getting information on internals        .... done
Copying old internal coords+grads       .... done
Making the new internal coordinates     .... (2022 redundants) done
Validating the new internal coordinates .... (2022 redundants) done
Calculating the B-matrix                .... done
Calculating the G,G- and P matrices     .... done
Transforming gradient to internals      .... done
Projecting the internal gradient        .... done
Number of atoms                         ....   6
Number of internal coordinates          ....  15
Current Energy                          .... -3073.588083372 Eh
Current gradient norm                   ....     0.107964494 Eh/bohr
Maximum allowed component of the step   ....  0.300
Current trust radius                    ....  0.300
Updating the Hessian (BFGS)             .... done
Forming the augmented Hessian           .... done
Diagonalizing the augmented Hessian     .... done
Last element of RFO vector              ....  0.933312772
Lowest eigenvalues of augmented Hessian:
 -0.042655815  0.191034439  0.264995496  0.271213863  0.280293048
Length of the computed step             ....  0.384720373
Warning: the length of the step is outside the trust region - taking restricted step instead
The input lambda is                     ....     0.188420
   iter:   5  x=    0.181283  g= 9149.253289 f(x)=    26.625657
   iter:  10  x=    0.061612  g=   12.802863 f(x)=     0.667779
   iter:  15  x=   -0.123490  g=    0.490931 f(x)=     0.000214
The output lambda is                    ....    -0.123491 (18 iterations)
The final length of the internal step   ....  0.300000000
Converting the step to Cartesian space:
 Initial RMS(Int)=    0.0774596669
Transforming coordinates:
 Iter   0:  RMS(Cart)=    0.0862879098 RMS(Int)=    0.0781212227
done
Storing new coordinates                 .... done
The predicted energy change is          ....    -0.022221222
Previously predicted energy change      ....    -0.050294964
Actually observed energy change         ....    -0.043544393
Ratio of predicted to observed change   ....     0.865780388
New trust radius                        ....     0.450000000

                                .--------------------.
          ----------------------|Geometry convergence|-------------------------
          Item                value                   Tolerance       Converged
          ---------------------------------------------------------------------
          Energy change      -0.0435443934            0.0000050000      NO
          RMS gradient        0.0287870877            0.0001000000      NO
          MAX gradient        0.0917749728            0.0003000000      NO
          RMS step            0.0774596669            0.0020000000      NO
          MAX step            0.2517456798            0.0040000000      NO
          ........................................................
          Max(Bonds)      0.1332      Max(Angles)    4.22
          Max(Dihed)        0.00      Max(Improp)    0.00
          ---------------------------------------------------------------------

The optimization has not yet converged - more geometry cycles are needed


    ---------------------------------------------------------------------------
                         Redundant Internal Coordinates
                            (Angstroem and degrees)

        Definition                    Value    dE/dq     Step     New-Value
    ----------------------------------------------------------------------------
     1. B(H   1,C   0)                1.0821  0.004480 -0.0013    1.0808   
     2. B(Br  2,C   0)                1.9803 -0.044333  0.0622    2.0425   
     3. B(H   3,C   0)                1.0816  0.004591 -0.0011    1.0805   
     4. B(H   4,C   0)                1.0960 -0.002125 -0.0001    1.0959   
     5. B(Cl  5,C   0)                2.3088 -0.091775  0.1332    2.4420   
     6. A(H   1,C   0,H   3)          112.31 -0.006795    0.36    112.68   
     7. A(Br  2,C   0,H   3)          106.80  0.009034   -1.09    105.71   
     8. A(H   1,C   0,H   4)          111.74 -0.009048    1.46    113.19   
     9. A(Br  2,C   0,H   4)          107.07  0.009577   -1.38    105.69   
    10. A(H   3,C   0,H   4)          111.79 -0.009300    1.47    113.26   
    11. A(H   1,C   0,Cl  5)           61.39 -0.014573    1.80     63.19   
    12. A(Br  2,C   0,Cl  5)          149.67 -0.026898    4.22    153.90   
    13. A(H   3,C   0,Cl  5)           60.00 -0.016902    2.03     62.03   
    14. A(H   4,C   0,Cl  5)          103.25  0.017295   -2.85    100.40   
    15. A(H   1,C   0,Br  2)          106.73  0.009390   -1.11    105.63   
    ----------------------------------------------------------------------------

Geometry step timings:
Preparation and reading OPT file:      0.000 s ( 9.818 %)
Internal coordinates            :      0.000 s ( 2.217 %)
B/P matrices and projection     :      0.000 s (12.510 %)
Hessian update/contruction      :      0.000 s (22.407 %)
[...]
Nuclear contribution   :      5.580095402     -10.815812550      -3.033619487
                        -----------------------------------------
Total Dipole Moment    :     -1.664532238       3.217972910       0.894227097
                        -----------------------------------------
Magnitude (a.u.)       :      3.731709973
Magnitude (Debye)      :      9.485252946



--------------------
Rotational spectrum 
--------------------
 
Rotational constants in cm-1:             5.131935             0.027495             0.027495 
Rotational constants in MHz :        153851.534993           824.266601           824.265634 

Dipole components along the rotational axes: 
x,y,z [a.u.] :    -3.731709    -0.002937    -0.000634 
x,y,z [Debye]:    -9.485250    -0.007466    -0.001612 

 

Dipole moment calculation done in   0.0 sec 

-----------
SCF HESSIAN
-----------

Occupied/Occupied contributions to the Hessian:
   => Occupied/Occupied contributions              ... done (  0.0 sec)
Perturbed density contributions to the Hessian:
   => Perturbed density contributions              ... done (  0.0 sec)
Explicit contributions to the Hessian:
   => Nuclear repulsion Hessian                    ... done (  0.0 sec)
   => HCore and overlap Hessian                    ... done (  0.3 sec)
   => RI-J Hessian                                 ... done (  0.9 sec)
   => COSX Hessian                                 ... done ( 43.9 sec)
   => XC-Hessian                                   ... done (  3.7 sec)
   => Explicit contributions done
Dipole derivatives                                 ... done (  0.0 sec)
Mass weighting the Hessian           ... done
Calculating normal modes             ... done
Scaling frequencies                  ... done

-----------------------
VIBRATIONAL FREQUENCIES
-----------------------

Scaling factor for frequencies =  1.000000000  (already applied!)

     0:       0.00 cm**-1
     1:       0.00 cm**-1
     2:       0.00 cm**-1
     3:       0.00 cm**-1
     4:       0.00 cm**-1
     5:       0.00 cm**-1
     6:      98.65 cm**-1
     7:      99.42 cm**-1
     8:     137.50 cm**-1
     9:     356.80 cm**-1
    10:     830.62 cm**-1
    11:     830.77 cm**-1
    12:    1142.06 cm**-1
    13:    1402.61 cm**-1
    14:    1402.80 cm**-1
    15:    3135.31 cm**-1
    16:    3286.97 cm**-1
    17:    3287.18 cm**-1


------------
NORMAL MODES
------------

These modes are the Cartesian displacements weighted by the diagonal matrix
M(i,i)=1/sqrt(m[i]) where m[i] is the mass of the displaced atom
Thus, these vectors are normalized but *not* orthogonal

                  0          1          2          3          4          5    
      0       0.000000   0.000000   0.000000   0.000000   0.000000   0.000000
      1       0.000000   0.000000   0.000000   0.000000   0.000000   0.000000
      2       0.000000   0.000000   0.000000   0.000000   0.000000   0.000000
      3       0.000000   0.000000   0.000000   0.000000   0.000000   0.000000
      4       0.000000   0.000000   0.000000   0.000000   0.000000   0.000000
      5       0.000000   0.000000   0.000000   0.000000   0.000000   0.000000
      6       0.000000   0.000000   0.000000   0.000000   0.000000   0.000000
      7       0.000000   0.000000   0.000000   0.000000   0.000000   0.000000
      8       0.000000   0.000000   0.000000   0.000000   0.000000   0.000000
      9       0.000000   0.000000   0.000000   0.000000   0.000000   0.000000
     10       0.000000   0.000000   0.000000   0.000000   0.000000   0.000000
     11       0.000000   0.000000   0.000000   0.000000   0.000000   0.000000
     12       0.000000   0.000000   0.000000   0.000000   0.000000   0.000000
     13       0.000000   0.000000   0.000000   0.000000   0.000000   0.000000
     14       0.000000   0.000000   0.000000   0.000000   0.000000   0.000000
     15       0.000000   0.000000   0.000000   0.000000   0.000000   0.000000
     16       0.000000   0.000000   0.000000   0.000000   0.000000   0.000000
     17       0.000000   0.000000   0.000000   0.000000   0.000000   0.000000
                  6          7          8          9         10         11    
      0       0.220725  -0.303949   0.152468  -0.325081  -0.022691  -0.084579
      1       0.011701  -0.211303  -0.303494   0.633394  -0.036620  -0.033181
      2       0.355779   0.195548  -0.090029   0.179547   0.087542  -0.035689
      3       0.188166  -0.277637   0.123619  -0.248454  -0.019827  -0.235751
      4       0.170380  -0.416413  -0.207048   0.282666   0.164571   0.709699
      5       0.449511   0.183404  -0.061181   0.070234  -0.124283   0.240176
      6      -0.023676   0.032831   0.127441   0.058055   0.002035   0.007582
      7      -0.001610   0.022876  -0.245578  -0.112917   0.003277   0.002975
      8      -0.038545  -0.021124  -0.067781  -0.031907  -0.007855   0.003204
      9       0.211981  -0.475690   0.095389  -0.113519   0.343724   0.264424
     10       0.078990  -0.041805  -0.222901   0.365837  -0.586123  -0.193211
     11       0.429854   0.289844  -0.051481   0.024771  -0.301077   0.004447
     12       0.370563  -0.309914   0.097507  -0.130999  -0.219938   0.356733
     13      -0.205500  -0.281835  -0.209933   0.316124   0.588303  -0.363687
     14       0.365885   0.210716  -0.083160   0.180423   0.025950  -0.081631
     15      -0.043332   0.059213  -0.347866  -0.006689   0.000146   0.000609
     16      -0.001583   0.041072   0.674468   0.012468   0.000279   0.000193
     17      -0.069069  -0.038090   0.188825   0.003248  -0.000600   0.000236
                 12         13         14         15         16         17    
      0      -0.033287   0.031093   0.060422  -0.016191  -0.030488  -0.082328
      1       0.064455   0.033048   0.019681   0.031329  -0.039431  -0.030178
      2       0.018059  -0.060905   0.041605   0.008834   0.084420  -0.043831
      3       0.102106  -0.067389   0.036338   0.561388   0.190921   0.770793
      4      -0.541112  -0.141440   0.311053   0.097416   0.024133   0.117701
      5      -0.169671   0.711423  -0.185011   0.090830   0.044565   0.115119
      6      -0.003609   0.000256   0.000496   0.000075   0.000063   0.000169
      7       0.006998   0.000271   0.000159  -0.000146   0.000081   0.000062
      8       0.001964  -0.000495   0.000336  -0.000041  -0.000173   0.000090
      9       0.332229   0.249689  -0.525228  -0.231933   0.307556   0.075663
     10      -0.400663  -0.109777  -0.163675  -0.387011   0.537805   0.150506
     11      -0.247302  -0.056736  -0.531690   0.359091  -0.476216  -0.147295
     12       0.303661  -0.582317  -0.288648  -0.137313  -0.141256   0.118229
     13      -0.487621  -0.174028  -0.400345  -0.082174  -0.099897   0.085377
     14       0.016387   0.128718   0.181616  -0.554669  -0.557522   0.545731
     15      -0.001571   0.000263   0.000519  -0.000147   0.000031   0.000083
     16       0.003033   0.000283   0.000166   0.000284   0.000039   0.000032
     17       0.000845  -0.000523   0.000360   0.000077  -0.000086   0.000045


-----------
IR SPECTRUM
-----------

 Mode   freq       eps      Int      T**2         TX        TY        TZ
       cm**-1   L/(mol*cm) km/mol    a.u.
----------------------------------------------------------------------------
  6:     98.65   0.001276    6.45  0.004036  ( 0.034576 -0.000311  0.053298)
  7:     99.42   0.001275    6.44  0.004001  (-0.046072 -0.031663  0.029597)
  8:    137.50   0.011686   59.05  0.026521  ( 0.072423 -0.140455 -0.039347)
  9:    356.80   0.070686  357.22  0.061823  (-0.110699  0.214424  0.059927)
 10:    830.62   0.000841    4.25  0.000316  ( 0.004308  0.006403 -0.016015)
 11:    830.77   0.000846    4.27  0.000318  ( 0.015299  0.006384  0.006549)
 12:   1142.06   0.006408   32.38  0.001751  (-0.018551  0.036067  0.010292)
 13:   1402.61   0.000615    3.11  0.000137  (-0.004805 -0.005163  0.009331)
 14:   1402.80   0.000619    3.13  0.000138  (-0.009452 -0.002870 -0.006337)
 15:   3135.31   0.000053    0.27  0.000005  (-0.000991  0.001970  0.000640)
 16:   3286.97   0.000007    0.03  0.000001  ( 0.000264  0.000434 -0.000623)
 17:   3287.18   0.000007    0.04  0.000001  ( 0.000741  0.000223  0.000311)

* The epsilon (eps) is given for a Dirac delta lineshape.
** The dipole moment derivative (T) already includes vibrational overlap.

The first frequency considered to be a vibration is 6
The total number of vibrations considered is 12


--------------------------
THERMOCHEMISTRY AT 298.15K
--------------------------

Temperature         ...   298.15 K
Pressure            ...     1.00 atm
Total Mass          ...   130.39 AMU
Quasi RRHO          ...     True
Cut-Off Frequency   ...     1.00 cm^-1

Throughout the following assumptions are being made:
  (1) The electronic state is orbitally nondegenerate
  (2) There are no thermally accessible electronically excited states
  (3) Hindered rotations indicated by low frequency modes are not
      treated as such but are treated as vibrations and this may
      cause some error
  (4) All equations used are the standard statistical mechanics
      equations for an ideal gas
  (5) All vibrations are strictly harmonic

freq.      98.65  E(vib)   ...       0.46 
freq.      99.42  E(vib)   ...       0.46 
freq.     137.50  E(vib)   ...       0.42 
freq.     356.80  E(vib)   ...       0.22 
freq.     830.62  E(vib)   ...       0.04 
freq.     830.77  E(vib)   ...       0.04 
freq.    1142.06  E(vib)   ...       0.01 
freq.    1402.61  E(vib)   ...       0.00 
freq.    1402.80  E(vib)   ...       0.00 
freq.    3135.31  E(vib)   ...       0.00 
freq.    3286.97  E(vib)   ...       0.00 
freq.    3287.18  E(vib)   ...       0.00 

------------
INNER ENERGY
------------

The inner energy is: U= E(el) + E(ZPE) + E(vib) + E(rot) + E(trans)
    E(el)   - is the total energy from the electronic structure calculation
              = E(kin-el) + E(nuc-el) + E(el-el) + E(nuc-nuc)
    E(ZPE)  - the the zero temperature vibrational energy from the frequency calculation
    E(vib)  - the the finite temperature correction to E(ZPE) due to population
              of excited vibrational states
    E(rot)  - is the rotational thermal energy
    E(trans)- is the translational thermal energy

Summary of contributions to the inner energy U:
Electronic energy                ...  -3073.63592674 Eh
Zero point energy                ...      0.03647504 Eh      22.89 kcal/mol
Thermal vibrational correction   ...      0.00266803 Eh       1.67 kcal/mol
Thermal rotational correction    ...      0.00141627 Eh       0.89 kcal/mol
Thermal translational correction ...      0.00141627 Eh       0.89 kcal/mol
-----------------------------------------------------------------------
Total thermal energy                  -3073.59395112 Eh


Summary of corrections to the electronic energy:
(perhaps to be used in another calculation)
Total thermal correction                  0.00550057 Eh       3.45 kcal/mol
Non-thermal (ZPE) correction              0.03647504 Eh      22.89 kcal/mol
-----------------------------------------------------------------------
Total correction                          0.04197561 Eh      26.34 kcal/mol


--------
ENTHALPY
--------

The enthalpy is H = U + kB*T
                kB is Boltzmann's constant
Total thermal energy              ...  -3073.59395112 Eh 
Thermal Enthalpy correction       ...      0.00094421 Eh       0.59 kcal/mol
-----------------------------------------------------------------------
Total Enthalpy                    ...  -3073.59300692 Eh


Note: Only C1 symmetry has been detected, increase convergence thresholds 
      if your molecule has a higher symmetry. Symmetry factor of 1.0 is   
      used for the rotational entropy correction. 
 

Note: Rotational entropy computed according to Herzberg 
Infrared and Raman Spectra, Chapter V,1, Van Nostrand Reinhold, 1945 
Point Group:  C1, Symmetry Number:   1  
Rotational constants in cm-1:     5.131935     0.027495     0.027495 

Vibrational entropy computed according to the QRRHO of S. Grimme
Chem.Eur.J. 2012 18 9955 using a reference frequency of 100.0 cm-1


-------
ENTROPY
-------

The entropy contributions are T*S = T*(S(el)+S(vib)+S(rot)+S(trans))
     S(el)   - electronic entropy
     S(vib)  - vibrational entropy
     S(rot)  - rotational entropy
     S(trans)- translational entropy
The entropies will be listed as multiplied by the temperature to get
units of energy

Electronic entropy                ...      0.00000000 Eh      0.00 kcal/mol
Vibrational entropy               ...      0.00508076 Eh      3.19 kcal/mol
Rotational entropy                ...      0.01213188 Eh      7.61 kcal/mol
Translational entropy             ...      0.01924704 Eh     12.08 kcal/mol
-----------------------------------------------------------------------
Final entropy term                ...      0.03645968 Eh     22.88 kcal/mol

In case the symmetry of your molecule has not been determined correctly
or in case you have a reason to use a different symmetry number we print 
out the resulting rotational entropy values for sn=1,12:

 non-linear molecules -----------------------------------
|  sn= 1 | S(rot)=       0.01213188 Eh      7.61 kcal/mol|
|  sn= 2 | S(rot)=       0.01147742 Eh      7.20 kcal/mol|
|  sn= 3 | S(rot)=       0.01109459 Eh      6.96 kcal/mol|
|  sn= 4 | S(rot)=       0.01082297 Eh      6.79 kcal/mol|
|  sn= 5 | S(rot)=       0.01061228 Eh      6.66 kcal/mol|
|  sn= 6 | S(rot)=       0.01044014 Eh      6.55 kcal/mol|
|  sn= 7 | S(rot)=       0.01029459 Eh      6.46 kcal/mol|
|  sn= 8 | S(rot)=       0.01016851 Eh      6.38 kcal/mol|
|  sn= 9 | S(rot)=       0.01005730 Eh      6.31 kcal/mol|
|  sn=10 | S(rot)=       0.00995782 Eh      6.25 kcal/mol|
|  sn=11 | S(rot)=       0.00986783 Eh      6.19 kcal/mol|
|  sn=12 | S(rot)=       0.00978568 Eh      6.14 kcal/mol|
 linear molecules ---------------------------------------
|  Dinfh | S(rot)=       0.00871897 Eh      5.47 kcal/mol|
|  Cinfv | S(rot)=       0.00937343 Eh      5.88 kcal/mol|
 --------------------------------------------------------


-------------------
GIBBS FREE ENERGY
-------------------

The Gibbs free energy is G = H - T*S

Total enthalpy                    ...  -3073.59300692 Eh 
Total entropy correction          ...     -0.03645968 Eh    -22.88 kcal/mol
-----------------------------------------------------------------------
Final Gibbs free energy         ...  -3073.62946660 Eh

For completeness - the Gibbs free energy minus the electronic energy
G-E(el)                           ...      0.00646014 Eh      4.05 kcal/mol


Maximum memory used throughout the entire PROP-calculation: 31.2 MB

--------------------------------
SUGGESTED CITATIONS FOR THIS RUN
--------------------------------

Below you find a list of papers that are relevant to this ORCA run
We neither can nor want to force you to cite these papers, but we appreciate if you do
You receive ORCA, which is the product of decades of hard work by many enthusiastic individuals, for free
The only thing we kindly ask in return is that you cite our papers,
We deeply appreciate it, if you show your appreciation for ORCA by not just citing the generic ORCA reference.

Please note that relegating all ORCA citations to the supporting information does *not* help us.
SI sections are not indexed - citations you put there will not count into any citation statistics
But we need these citations in order to attract the funding resources that allow us to do what we are doing

Therefore, if you are a happy ORCA user, please consider citing a few of the papers listed below in the main body of your paper

In addition to the list printed below, the program has created the file reactant_opt.bibtex that contains the list in bibtex format
You can import this file easily into all common literature databanks and citation aid programs


List of essential papers. We consider these as the minimum necessary citations

  1. Neese,F.
     Software update: the ORCA program system, version 5.0
     WIRES Comput. Molec. Sci., 2022 12(1)e1606
     doi.org/10.1002/wcms.1606

List of papers to cite with high priority. The work reported in these papers was absolutely
necessary for this run to complete.
Our perspective: the developers of density functionals and basis sets usually get cited in chemistry papers
Good! But without the algorithms to do something with them, the functionals or basis sets would not do anything.
Hence, in our opinion, the algorithm design and method developments papers are equally worthy of getting cited

  1. Neese,F.
     An improvement of the resolution of the identity approximation for the formation of the Coulomb matrix
     J. Comp. Chem., 2003 24(14)1740-1747
     doi.org/10.1002/jcc.10318
  2. Neese,F.; Wennmohs,F.; Hansen,A.; Becker,U.
     Efficient, approximate and parallel Hartree-Fock and hybrid DFT calculations. A 'chain-of-spheres' algorithm for the Hartree-Fock exchange
     Chem. Phys., 2009 356(1-3)98-109
     doi.org/10.1016/j.chemphys.2008.10.036
  3. Bykov,D.; Petrenko,T.; Izsak,R.; Kossmann,S.; Becker,U.; Valeev,E.; Neese,F.
     Efficient implementation of the analytic second derivatives of Hartree-Fock and hybrid DFT energies: a detailed analysis of different approximations
     Molec. Phys., 2015 113 1961-1977
     doi.org/10.1080/00268976.2015.1025114
  4. Helmich-Paris,B.; de Souza,B.; Neese,F.; Izsák,R.
     An improved chain of spheres for exchange algorithm
     J. Chem. Phys., 2021 155 104109
     doi.org/doi: 10.1063/5.0058766.
  5. Neese,F.
     The SHARK Integral Generation and Digestion System
     J. Comp. Chem., 2022  1-16
     doi.org/10.1002/jcc.26942

List of suggested additional citations. These are papers that are important in the 'surrounding' of 
of this run, or papers that preceded the highly important papers. If you like your results we are grateful for a citation.

  1. Izsak,R.; Neese,F.
     An overlap fitted chain of spheres exchange method
     J. Chem. Phys., 2011 135 144105
     doi.org/10.1063/1.3646921
  2. Izsak,R.; Hansen,A.; Neese,F.
     The resolution of identity and chain of spheres approximations for the LPNO-CCSD singles Fock term
     Molec. Phys., 2012 110 2413-2417
     doi.org/10.1080/00268976.2012.687466
  3. Neese,F.
     The ORCA program system
     WIRES Comput. Molec. Sci., 2012 2(1)73-78
     doi.org/10.1002/wcms.81
  4. Izsak,R.; Neese,F.; Klopper,W.
     Robust fitting techniques in the chain of spheres approximation to the Fock exchange: The role of the complementary space
     J. Chem. Phys., 2013 139 
     doi.org/10.1063/1.4819264
  5. Neese,F.
     Software update: the ORCA program system, version 4.0
     WIRES Comput. Molec. Sci., 2018 8(1)1-6
     doi.org/10.1002/wcms.1327
  6. Neese,F.; Wennmohs,F.; Becker,U.; Riplinger,C.
     The ORCA quantum chemistry program package
     J. Chem. Phys., 2020 152 Art. No. L224108
     doi.org/10.1063/5.0004608

List of optional additional citations

  1. Neese,F.
     Approximate second-order SCF convergence for spin unrestricted wavefunctions
     Chem. Phys. Lett., 2000 325(1-3)93-98
     doi.org/10.1016/s0009-2614(00)00662-x

Timings for individual modules:

Sum of individual times          ...      252.028 sec (=   4.200 min)
Startup calculation              ...        7.959 sec (=   0.133 min)   3.2 %
SCF iterations                   ...      104.637 sec (=   1.744 min)  41.5 %
Property integrals               ...       11.989 sec (=   0.200 min)   4.8 %
SCF Response                     ...        8.907 sec (=   0.148 min)   3.5 %
Property calculations            ...       48.925 sec (=   0.815 min)  19.4 %
SCF Gradient evaluation          ...       69.550 sec (=   1.159 min)  27.6 %
Geometry relaxation              ...        0.060 sec (=   0.001 min)   0.0 %
                             ****ORCA TERMINATED NORMALLY****
TOTAL RUN TIME: 0 days 0 hours 4 minutes 12 seconds 800 msec
